LAMMPS (2 Aug 2023 - Update 2)
# Compute elastic constant tensor for a crystal
#
# Written by Aidan Thompson (Sandia, athomps@sandia.gov)
#
#  This script uses the following three include files.
#
#   init.mod      (must be modified for different crystal structures)
# 	       	  Define units, deformation parameters and initial
#		  configuration of the atoms and simulation cell.
#
#
#   potential.mod    (must be modified for different pair styles)
# 		     Define pair style and other attributes
#		     not stored in restart file
#
#
#   displace.mod    (displace.mod should not need to be modified)
# 		    Perform positive and negative box displacements
# 		    in direction ${dir} and size ${up}.
# 		    It uses the resultant changes
#		    in stress to compute one
# 		    row of the elastic stiffness tensor
#
#		    Inputs variables:
#		    	   dir = the Voigt deformation component
#		    		    (1,2,3,4,5,6)
#		    Global constants:
#       	    	   up = the deformation magnitude (strain units)
#       		   cfac = conversion from LAMMPS pressure units to
#               	   output units for elastic constants
#
#
#  To run this on a different system, it should only be necessary to
#  modify the files init.mod and potential.mod. In order to calculate
#  the elastic constants correctly, care must be taken to specify
#  the correct units in init.mod (units, cfac and cunits). It is also
#  important to verify that the minimization of energy w.r.t atom
#  positions in the deformed cell is fully converged.
#  One indication of this is that the elastic constants are insensitive
#  to the choice of the variable ${up} in init.mod. Another is to check
#  the final max and two-norm forces reported in the log file. If you know
#  that minimization is not required, you can set maxiter = 0.0 in
#  init.mod.
#

include init.mod
# NOTE: This script can be modified for different atomic structures,
# units, etc. See in.elastic for more info.
#

# Define the finite deformation size. Try several values of this
# variable to verify that results do not depend on it.
variable up equal 1.0e-6

# Define the amount of random jiggle for atoms
# This prevents atoms from staying on saddle points
variable atomjiggle equal 1.0e-5

# Uncomment one of these blocks, depending on what units
# you are using in LAMMPS and for output

# metal units, elastic constants in eV/A^3
#units		metal
#variable cfac equal 6.2414e-7
#variable cunits string eV/A^3

# metal units, elastic constants in GPa
units		metal
variable cfac equal 1.0e-4
variable cunits string GPa

# real units, elastic constants in GPa
#units		real
#variable cfac equal 1.01325e-4
#variable cunits string GPa

# Define minimization parameters
variable etol equal 0.0
variable ftol equal 1.0e-15
variable maxiter equal 100
variable maxeval equal 1000
variable dmax equal 1.0e-2

# generate the box and atom positions using a diamond lattice
variable a equal 2.866

boundary	p p p

lattice         bcc $a
lattice         bcc 2.866
Lattice spacing in x,y,z = 2.866 2.866 2.866
region		box prism 0 15.0 0 15.0 0 15.0 0.0 0.0 0.0
create_box	1 box
Created triclinic box = (0 0 0) to (42.99 42.99 42.99) with tilt (0 0 0)
  2 by 2 by 2 MPI processor grid
create_atoms	1 box
Created 6750 atoms
  using lattice units in triclinic box = (0 0 0) to (42.99 42.99 42.99) with tilt (0 0 0)
  create_atoms CPU = 0.003 seconds



include potential.mod
# NOTE: This script can be modified for different pair styles
# See in.elastic for more info.

# Choose potential
pair_style      eam/alloy
pair_coeff      * * Fe_Ack.eam Fe

# Need to set mass to something, just to satisfy LAMMPS
mass            1 55.85   # Iron

# Setup neighbor style
neighbor 1.0 nsq
neigh_modify once no every 1 delay 0 check yes

# Setup minimization style
min_style	     cg
min_modify	     dmax ${dmax} line quadratic
min_modify	     dmax 0.01 line quadratic

# Setup output
thermo		1
thermo_style custom step temp pe press pxx pyy pzz pxy pxz pyz lx ly lz vol
thermo_modify norm no

# Compute initial state
fix 3 all box/relax  aniso 0.0
minimize ${etol} ${ftol} ${maxiter} ${maxeval}
minimize 0 ${ftol} ${maxiter} ${maxeval}
minimize 0 1e-15 ${maxiter} ${maxeval}
minimize 0 1e-15 100 ${maxeval}
minimize 0 1e-15 100 1000
Neighbor list info ...
  update: every = 1 steps, delay = 0 steps, check = yes
  max neighbors/atom: 2000, page size: 100000
  master list distance cutoff = 5.156425
  ghost atom cutoff = 5.156425
  1 neighbor lists, perpetual/occasional/extra = 1 0 0
  (1) pair eam/alloy, perpetual
      attributes: half, newton on
      pair build: half/nsq/newton
      stencil: none
      bin: none
WARNING: Energy due to 3 extra global DOFs will be included in minimizer energies
 (../min.cpp:228)
Per MPI rank memory allocation (min/avg/max) = 4.479 | 4.479 | 4.479 Mbytes
   Step          Temp          PotEng         Press           Pxx            Pyy            Pzz            Pxy            Pxz            Pyz             Lx             Ly             Lz           Volume    
         0   0             -29132.989      934.46288      934.46288      934.46288      934.46288      3.0322513e-11 -7.0298798e-12  1.339707e-11   42.99          42.99          42.99          79451.543    
         1   0             -29132.999      397.80896      397.80896      397.80896      397.80896     -8.2363689e-12  1.2752943e-11  1.1745778e-11  42.994299      42.994299      42.994299      79475.381    
         2   0             -29133.001     -0.1435807     -0.1435807     -0.1435807     -0.1435807      6.7773751e-11  3.956154e-12   1.3604873e-11  42.997502      42.997502      42.997502      79493.142    
         3   0             -29133.001     -0.0002468322  -0.00024683214 -0.00024683221 -0.00024683224  1.8098063e-11  8.292708e-12  -2.3128287e-11  42.9975        42.9975        42.9975        79493.135    
         4   0             -29133.001     -3.4167225e-08 -3.4124543e-08 -3.4167318e-08 -3.4209815e-08 -6.2654027e-12  1.5529248e-12  4.6542992e-11  42.9975        42.9975        42.9975        79493.135    
         5   0             -29133.001     -5.3195954e-10 -5.188201e-10  -5.211204e-10  -5.5593813e-10  9.4876098e-13  2.2510697e-11  1.1098713e-11  42.9975        42.9975        42.9975        79493.135    
         6   0             -29133.001     -3.3151141e-10 -3.516144e-10  -3.2614106e-10 -3.1677876e-10  5.3882463e-12 -4.7885578e-12 -6.0076261e-11  42.9975        42.9975        42.9975        79493.135    
         7   0             -29133.001      2.0241129e-10  1.7450937e-10  1.773825e-10   2.5534201e-10  1.9834475e-11  1.2620311e-11  3.7878835e-11  42.9975        42.9975        42.9975        79493.135    
         8   0             -29133.001     -3.5866745e-10 -3.2680341e-10 -3.843019e-10  -3.6489705e-10 -2.6959133e-11 -1.8214421e-11 -5.320222e-11   42.9975        42.9975        42.9975        79493.135    
         9   0             -29133.001      2.4909749e-10  2.1974557e-10  2.4814575e-10  2.7940116e-10 -1.9476452e-11  6.4265131e-12  2.2770264e-11  42.9975        42.9975        42.9975        79493.135    
        10   0             -29133.001     -3.3875541e-10 -3.1955344e-10 -3.5372674e-10 -3.4298605e-10 -5.0230629e-11 -2.8614989e-11 -6.036268e-11   42.9975        42.9975        42.9975        79493.135    
        11   0             -29133.001      2.9434265e-10  2.6570678e-10  2.8593508e-10  3.313861e-10  -3.6768963e-11  2.3557914e-11  3.2794908e-11  42.9975        42.9975        42.9975        79493.135    
        12   0             -29133.001     -3.3531839e-10 -3.0455228e-10 -3.5927609e-10 -3.4212679e-10 -3.655415e-11  -2.1038327e-11 -5.9789843e-11  42.9975        42.9975        42.9975        79493.135    
        13   0             -29133.001      3.0550104e-10  2.6982404e-10  2.9939674e-10  3.4728232e-10 -9.7561271e-12  1.8652999e-11  4.0528205e-11  42.9975        42.9975        42.9975        79493.135    
        14   0             -29133.001      6.8322725e-13  5.7901272e-11  4.2676343e-11 -9.8527933e-11  2.8194312e-11 -2.5732904e-12 -5.0910872e-11  42.9975        42.9975        42.9975        79493.135    
        15   0             -29133.001     -2.1547913e-10 -2.7792431e-10 -2.7156045e-10 -9.6952632e-11 -3.4907244e-12 -8.2971833e-12  1.4822153e-11  42.9975        42.9975        42.9975        79493.135    
        16   0             -29133.001      1.8410438e-10  9.0177046e-11  5.943182e-11   4.0270428e-10 -8.9863776e-12  2.2676283e-11 -4.496769e-11   42.9975        42.9975        42.9975        79493.135    
        17   0             -29133.001      8.2631711e-11 -3.5993844e-10 -1.0830196e-11  6.1866377e-10  2.8731347e-11 -1.173868e-11  -2.8641841e-13  42.9975        42.9975        42.9975        79493.135    
        18   0             -29133.001     -1.0133662e-09 -1.223848e-09  -1.3004112e-09 -5.1583956e-10  3.2311577e-11  3.4652152e-11  5.3130615e-11  42.9975        42.9975        42.9975        79493.135    
        19   0             -29133.001      2.2377632e-10  1.0651722e-09  9.6648312e-11 -4.9049153e-10  1.6522762e-11  2.4103899e-11 -4.869113e-12   42.9975        42.9975        42.9975        79493.135    
        20   0             -29133.001     -1.5816949e-09 -6.9022362e-10  2.8065424e-10 -4.3355155e-09 -1.322895e-11   2.0085091e-11  2.1266567e-11  42.9975        42.9975        42.9975        79493.135    
        21   0             -29133.001      3.8287294e-09  3.8343772e-09  6.195803e-09   1.456008e-09  -2.878505e-11   5.9073797e-13 -3.3224536e-11  42.9975        42.9975        42.9975        79493.135    
        22   0             -29133.001      3.312772e-09   4.9368688e-10  5.5307216e-09  3.9139076e-09 -1.4052403e-11  5.8823181e-11 -1.6540663e-11  42.9975        42.9975        42.9975        79493.135    
        23   0             -29133.001     -1.5310973e-09 -3.8043346e-09  2.2797115e-10 -1.0169286e-09  6.0487988e-11  1.6773378e-11  1.1027109e-11  42.9975        42.9975        42.9975        79493.135    
        24   0             -29133.001     -7.3228237e-10 -8.7785453e-10 -6.7111414e-10 -6.4787844e-10  9.7382259e-12  8.9953282e-12 -5.7212077e-11  42.9975        42.9975        42.9975        79493.135    
        25   0             -29133.001     -1.5241338e-11  6.2130419e-11 -9.6397696e-11 -1.1456736e-11 -2.7030737e-12  3.1483649e-11  3.8236858e-11  42.9975        42.9975        42.9975        79493.135    
        26   0             -29133.001      4.9538451e-11 -2.0233671e-10  2.8063634e-10  7.031572e-11   6.3029951e-11  3.3936106e-11  4.9407176e-12  42.9975        42.9975        42.9975        79493.135    
        27   0             -29133.001     -5.660314e-10   9.3074347e-10  1.0550759e-09 -3.6839136e-09  5.7999728e-12  2.3584766e-11 -6.9026837e-11  42.9975        42.9975        42.9975        79493.135    
        28   0             -29133.001      7.2017851e-09  9.2093096e-09  8.0669745e-09  4.3290711e-09 -3.2222071e-11  8.5433241e-12 -3.1291211e-11  42.9975        42.9975        42.9975        79493.135    
        29   0             -29133.001      2.4580532e-09  4.6898464e-09  9.1911668e-10  1.7651967e-09  4.3320785e-12 -2.1915484e-11  6.5947839e-11  42.9975        42.9975        42.9975        79493.135    
        30   0             -29133.001     -7.9435759e-10  7.1151703e-10 -1.833776e-09  -1.2608138e-09 -1.4213514e-11  1.0601956e-11 -6.4444142e-12  42.9975        42.9975        42.9975        79493.135    
        31   0             -29133.001      1.1592636e-10  1.4859298e-10  5.4240486e-12  1.9376205e-10 -3.6947975e-11 -1.6290047e-11 -4.0098577e-12  42.9975        42.9975        42.9975        79493.135    
        32   0             -29133.001      2.0096578e-10  2.5584772e-10  1.1032479e-10  2.3672482e-10 -5.1161488e-11 -1.6102085e-11  1.3676479e-11  42.9975        42.9975        42.9975        79493.135    
        33   0             -29133.001      1.2958195e-10  1.6143705e-10  3.2257873e-11  1.9505094e-10  7.3394718e-12 -5.4285239e-12  4.9980013e-11  42.9975        42.9975        42.9975        79493.135    
        34   0             -29133.001     -2.2275744e-10 -1.4206801e-10 -2.7487217e-10 -2.5133215e-10  4.1530669e-11  2.2474895e-11  3.7735626e-11  42.9975        42.9975        42.9975        79493.135    
        35   0             -29133.001     -5.0911767e-10 -6.5912932e-10 -1.587653e-10  -7.094584e-10   6.2116993e-12  2.9344461e-11  2.4345565e-11  42.9975        42.9975        42.9975        79493.135    
        36   0             -29133.001      2.0895118e-10 -8.6471508e-11  7.7619389e-10 -6.2868841e-11  2.2430142e-11 -1.0839147e-11  1.3676479e-11  42.9975        42.9975        42.9975        79493.135    
        37   0             -29133.001      1.2376423e-09  1.4170685e-09  5.6073564e-10  1.7351227e-09 -2.8928259e-11 -1.5923073e-11 -1.3461665e-11  42.9975        42.9975        42.9975        79493.135    
        38   0             -29133.001     -2.4713583e-10  1.8348679e-13 -1.2873612e-09  5.4577028e-10 -4.1530669e-12 -2.8265917e-11 -6.301205e-11   42.9975        42.9975        42.9975        79493.135    
        39   0             -29133.001     -1.4328842e-09 -1.1115317e-09 -6.6334504e-10 -2.5237758e-09 -2.2591252e-11  5.4598509e-13  4.0026973e-11  42.9975        42.9975        42.9975        79493.135    
        40   0             -29133.001      5.6052232e-10  6.4523355e-10  1.7467943e-09 -7.1046087e-10  5.3703452e-13  2.030438e-11  -1.9977684e-11  42.9975        42.9975        42.9975        79493.135    
        41   0             -29133.001      1.2858919e-09  3.3397729e-10  4.0674994e-10  3.1169483e-09  1.6719675e-11  5.3076912e-12 -5.1841732e-11  42.9975        42.9975        42.9975        79493.135    
        42   0             -29133.001     -1.0385546e-09 -1.8833487e-09 -2.0729532e-09  8.4063803e-10 -2.0264103e-11  3.3076851e-11 -2.1481381e-13  42.9975        42.9975        42.9975        79493.135    
        43   0             -29133.001      9.5995069e-10  2.2744173e-09  1.3346561e-09 -7.2922127e-10  4.5343615e-11  2.3826431e-11  3.2007257e-11  42.9975        42.9975        42.9975        79493.135    
        44   0             -29133.001     -2.4857583e-09 -8.2704658e-10 -1.4915955e-09 -5.1386327e-09  8.5746511e-12 -1.8008558e-11 -7.203423e-11   42.9975        42.9975        42.9975        79493.135    
        45   0             -29133.001     -1.1630079e-09 -7.4592305e-10  4.3112415e-09 -7.0543422e-09  5.0123222e-13  1.8993121e-11  2.7352958e-11  42.9975        42.9975        42.9975        79493.135    
        46   0             -29133.001      5.4711675e-09  5.0560994e-09  7.4785816e-09  3.8788213e-09  1.4535734e-11 -1.0015694e-11 -5.2199755e-11  42.9975        42.9975        42.9975        79493.135    
        47   0             -29133.001      4.3335702e-11 -7.0048097e-10  3.3958483e-11  7.965296e-10  -1.4768449e-11 -3.5363723e-11  2.3987542e-11  42.9975        42.9975        42.9975        79493.135    
        48   0             -29133.001     -1.1172854e-09 -1.0052839e-09 -1.1897284e-09 -1.156844e-09  -3.6339336e-12  2.4591706e-11  4.324918e-11   42.9975        42.9975        42.9975        79493.135    
        49   0             -29133.001     -3.6957224e-10  2.9707855e-10 -5.7131522e-10 -8.3448004e-10 -5.8357751e-12 -1.0830196e-11 -5.0123222e-12  42.9975        42.9975        42.9975        79493.135    
        50   0             -29133.001      4.1190846e-10  7.7631025e-10  4.1917334e-10  4.0241787e-11  3.2222071e-12 -2.7214224e-11  1.4034502e-11  42.9975        42.9975        42.9975        79493.135    
        51   0             -29133.001      1.7202707e-10  7.7556735e-11  2.7340427e-10  1.6512021e-10  6.9581772e-11 -3.4943046e-11 -2.1194962e-11  42.9975        42.9975        42.9975        79493.135    
        52   0             -29133.001     -5.1473714e-10 -6.7419761e-10 -4.760453e-10  -3.9396852e-10  3.6160324e-12  1.9982159e-11 -1.260241e-11   42.9975        42.9975        42.9975        79493.135    
        53   0             -29133.001      9.0217324e-11 -1.9597285e-11  1.3629936e-10  1.539499e-10  -6.6413269e-12  1.7963805e-11  1.5681408e-11  42.9975        42.9975        42.9975        79493.135    
        54   0             -29133.001      1.4113416e-10  7.0260674e-10 -1.3441974e-10 -1.4478451e-10 -1.820547e-11  -4.1306905e-12 -7.8765063e-13  42.9975        42.9975        42.9975        79493.135    
        55   0             -29133.001     -1.1447115e-09 -5.1431348e-10 -1.3902034e-09 -1.5296175e-09  1.1814759e-11  1.3157346e-11  1.2817224e-11  42.9975        42.9975        42.9975        79493.135    
        56   0             -29133.001      2.952662e-09   1.7057962e-09  6.326016e-09   8.261739e-10  -4.3947325e-11 -1.6934488e-11  2.5419634e-11  42.9975        42.9975        42.9975        79493.135    
        57   0             -29133.001     -3.7410556e-09 -6.7197026e-09  2.0396213e-09 -6.5430854e-09  2.6207285e-11 -3.3560182e-11  1.8473987e-11  42.9975        42.9975        42.9975        79493.135    
        58   0             -29133.001     -3.1405122e-09 -9.4727698e-09  4.4825555e-09 -4.4313224e-09  1.3264753e-11 -7.9525862e-12  2.2985077e-11  42.9975        42.9975        42.9975        79493.135    
        59   0             -29133.001      5.4025792e-09  2.0421275e-09  9.3782696e-09  4.7873405e-09 -1.2119079e-11 -1.260241e-11  -6.0863912e-12  42.9975        42.9975        42.9975        79493.135    
        60   0             -29133.001     -5.0752149e-10 -4.6763176e-10 -7.0808001e-10 -3.4685269e-10 -5.0176925e-11 -3.4079316e-11 -1.4893757e-11  42.9975        42.9975        42.9975        79493.135    
        61   0             -29133.001     -1.3965135e-10  1.6711172e-10 -5.1474759e-10 -7.1318184e-11 -5.7462694e-12 -2.5276425e-11 -4.9980013e-11  42.9975        42.9975        42.9975        79493.135    
        62   0             -29133.001      3.4782085e-10  5.1326627e-10  1.9938302e-10  3.3081326e-10  3.6983777e-11 -4.0787772e-11  1.1743155e-11  42.9975        42.9975        42.9975        79493.135    
        63   0             -29133.001      9.3175489e-11  2.380853e-11   1.3943206e-10  1.1628587e-10 -2.5634448e-11  4.8422612e-12 -2.1194962e-11  42.9975        42.9975        42.9975        79493.135    
        64   0             -29133.001      1.7737952e-10  7.5193783e-11  2.5645188e-10  2.0049289e-10 -3.4978848e-11 -6.9903993e-12 -1.4392525e-11  42.9975        42.9975        42.9975        79493.135    
        65   0             -29133.001      1.149224e-10   1.4669993e-11  1.7528807e-10  1.5480915e-10 -5.1447907e-11  3.7234393e-12 -1.0669086e-11  42.9975        42.9975        42.9975        79493.135    
        66   0             -29133.001      5.8981308e-11 -6.0013607e-11  1.01052e-10    1.3590554e-10 -1.0901801e-11 -1.3667529e-11 -1.0096249e-11  42.9975        42.9975        42.9975        79493.135    
        67   0             -29133.001     -4.7830383e-10 -4.3366432e-10 -5.2650864e-10 -4.7473851e-10 -8.7715638e-13  7.1694108e-12 -6.3226864e-11  42.9975        42.9975        42.9975        79493.135    
        68   0             -29133.001     -4.6574319e-10 -4.6994996e-10 -4.6399782e-10 -4.6328178e-10 -1.2853026e-11 -6.3459579e-12 -4.7115828e-11  42.9975        42.9975        42.9975        79493.135    
        69   0             -29133.001     -2.5205118e-10 -1.5254466e-10 -3.2606946e-10 -2.7753944e-10 -1.074069e-11   5.5896343e-12 -2.706654e-11   42.9975        42.9975        42.9975        79493.135    
        70   0             -29133.001      3.6106322e-10  3.041316e-10   3.547292e-10   4.2432887e-10 -1.8456086e-11 -5.9521326e-12 -4.2604738e-11  42.9975        42.9975        42.9975        79493.135    
        71   0             -29133.001     -5.2964433e-10 -5.375984e-10  -5.3091233e-10 -5.2042225e-10  2.6619011e-11  3.5551685e-11 -6.9814487e-11  42.9975        42.9975        42.9975        79493.135    
        72   0             -29133.001      3.9667458e-10  3.4954682e-10  4.2645911e-10  4.1401781e-10  1.8080162e-12 -8.8163167e-12 -2.0192498e-11  42.9975        42.9975        42.9975        79493.135    
        73   0             -29133.001     -2.3562986e-10 -1.220948e-10  -2.9150234e-10 -2.9329245e-10 -1.4410426e-11  6.5992592e-11 -3.6017115e-11  42.9975        42.9975        42.9975        79493.135    
        74   0             -29133.001     -2.3770043e-10 -1.2766206e-10 -2.8799371e-10 -2.9744552e-10 -2.9751712e-11  5.1564264e-11 -7.0244115e-11  42.9975        42.9975        42.9975        79493.135    
        75   0             -29133.001      3.736358e-10   3.2328583e-10  3.9634938e-10  4.0127219e-10 -1.6773378e-11 -2.3396804e-11 -1.3962897e-11  42.9975        42.9975        42.9975        79493.135    
        76   0             -29133.001     -5.4297472e-10 -5.4282554e-10 -5.4204684e-10 -5.4405177e-10 -5.2987406e-12  2.5370406e-11 -5.1841732e-11  42.9975        42.9975        42.9975        79493.135    
        77   0             -29133.001      4.1264837e-10  3.7129672e-10  4.2169741e-10  4.44951e-10   -2.0550521e-11  1.4840054e-11 -4.231832e-11   42.9975        42.9975        42.9975        79493.135    
        78   0             -29133.001      6.4685808e-11  8.8888163e-11  1.4612709e-10 -4.0957833e-11  3.0002328e-11  4.9026776e-11  3.5802301e-12  42.9975        42.9975        42.9975        79493.135    
        79   0             -29133.001     -5.544046e-10  -5.4748879e-10 -5.5305605e-10 -5.6266897e-10  1.8098063e-11  1.8411333e-11  1.9404847e-11  42.9975        42.9975        42.9975        79493.135    
        80   0             -29133.001     -1.3603383e-10 -2.0436849e-10 -1.8497259e-10 -1.8760406e-11 -3.034245e-11   9.0400811e-13  1.7328314e-11  42.9975        42.9975        42.9975        79493.135    
        81   0             -29133.001     -3.3177694e-10 -4.1626441e-10 -4.0564007e-10 -1.7342635e-10  3.920352e-11  -1.322895e-11   3.4370209e-12  42.9975        42.9975        42.9975        79493.135    
        82   0             -29133.001      3.5985788e-10  3.2781482e-10  3.5048663e-10  4.0127219e-10  7.966012e-12   1.9807623e-11 -4.2103506e-11  42.9975        42.9975        42.9975        79493.135    
        83   0             -29133.001     -3.2381093e-10 -2.3386958e-10 -3.5949091e-10 -3.780723e-10  -1.2727718e-11  1.5171225e-12  2.4345565e-11  42.9975        42.9975        42.9975        79493.135    
        84   0             -29133.001      3.6536547e-10  3.3875242e-10  3.5148909e-10  4.0585489e-10 -9.5413133e-12  2.8964062e-11 -3.3940582e-11  42.9975        42.9975        42.9975        79493.135    
        85   0             -29133.001     -3.3447405e-10 -2.3539118e-10 -3.7749946e-10 -3.905315e-10  -7.6974948e-12 -1.189979e-11   2.0908544e-11  42.9975        42.9975        42.9975        79493.135    
        86   0             -29133.001      3.668632e-10   3.2641853e-10  3.703211e-10   4.0384996e-10  1.5036967e-11  2.2269031e-11 -3.0217142e-11  42.9975        42.9975        42.9975        79493.135    
        87   0             -29133.001     -6.443012e-10  -6.6070462e-10 -6.3305629e-10 -6.3914268e-10  2.7836289e-11  9.4339064e-12  4.2461529e-11  42.9975        42.9975        42.9975        79493.135    
        88   0             -29133.001      4.0760622e-10  3.9302871e-10  4.1892273e-10  4.1086721e-10  2.3092484e-11  1.4750548e-11 -1.3318456e-11  42.9975        42.9975        42.9975        79493.135    
        89   0             -29133.001      1.7474507e-11  3.18909e-11   -9.7328556e-11  1.1786118e-10 -3.966895e-11  -1.6804705e-11 -1.4607339e-11  42.9975        42.9975        42.9975        79493.135    
        90   0             -29133.001     -3.0497295e-10 -3.6538934e-10 -3.0825781e-11 -5.1870374e-10 -1.897522e-12  -1.6473534e-11  1.1599946e-11  42.9975        42.9975        42.9975        79493.135    
        91   0             -29133.001     -3.4698397e-12 -1.1307262e-10  5.18113e-10   -4.154499e-10  -2.4327664e-11 -2.224218e-12  -2.4130751e-11  42.9975        42.9975        42.9975        79493.135    
        92   0             -29133.001      1.2318796e-09  1.3924231e-09  1.028797e-09   1.2744187e-09  7.6616925e-12  2.0496817e-12 -3.2723303e-11  42.9975        42.9975        42.9975        79493.135    
        93   0             -29133.001      6.7824476e-10  9.2640245e-10 -3.4191198e-11  1.142523e-09  -2.9286282e-11 -1.0100724e-11 -2.3629519e-12  42.9975        42.9975        42.9975        79493.135    
        94   0             -29133.001     -4.3418047e-10 -2.8819062e-10 -8.8646498e-10 -1.2788582e-10  2.8641841e-11 -3.0870534e-11  2.2841868e-11  42.9975        42.9975        42.9975        79493.135    
        95   0             -29133.001     -2.6640194e-10 -3.3782156e-10 -1.7410659e-10 -2.8727767e-10  3.0431956e-11 -3.3202159e-11 -4.869113e-12   42.9975        42.9975        42.9975        79493.135    
        96   0             -29133.001      5.425242e-11   1.2985495e-10  8.8467486e-11 -5.5565172e-11  2.1875206e-11  1.8706702e-11 -6.0076261e-11  42.9975        42.9975        42.9975        79493.135    
        97   0             -29133.001      6.0499325e-10  3.7683712e-10  5.2976665e-10  9.0837599e-10 -1.8957319e-11  1.4916134e-11  1.0024644e-11  42.9975        42.9975        42.9975        79493.135    
        98   0             -29133.001      3.233276e-10  -2.1203913e-11  1.478635e-11   9.7640036e-10 -2.3969641e-11  2.994415e-11   4.0886228e-11  42.9975        42.9975        42.9975        79493.135    
        99   0             -29133.001     -4.7918695e-10 -6.1634557e-10 -6.6153702e-10 -1.5967826e-10 -3.857698e-11   1.1743155e-11 -4.0743019e-11  42.9975        42.9975        42.9975        79493.135    
       100   0             -29133.001      8.6731075e-11  1.4444438e-10  1.3894873e-10 -2.3199891e-11 -3.7234393e-12 -4.931767e-12  -4.2962761e-13  42.9975        42.9975        42.9975        79493.135    
Loop time of 0.259725 on 8 procs for 100 steps with 6750 atoms

97.2% CPU use with 8 MPI tasks x no OpenMP threads

Minimization stats:
  Stopping criterion = max iterations
  Energy initial, next-to-last, final = 
     -29132.9886040945  -29133.0007143247  -29133.0007143247
  Force two-norm initial, final = 80.262866 1.6411938e-11
  Force max component initial, final = 46.339787 7.1654615e-12
  Final line search alpha, max atom move = 1 7.1654615e-12
  Iterations, force evaluations = 100 199

MPI task timing breakdown:
Section |  min time  |  avg time  |  max time  |%varavg| %total
---------------------------------------------------------------
Pair    | 0.18512    | 0.18799    | 0.19216    |   0.6 | 72.38
Neigh   | 0          | 0          | 0          |   0.0 |  0.00
Comm    | 0.028852   | 0.03307    | 0.035725   |   1.5 | 12.73
Output  | 0.0028253  | 0.0042501  | 0.0092202  |   2.9 |  1.64
Modify  | 0          | 0          | 0          |   0.0 |  0.00
Other   |            | 0.03442    |            |       | 13.25

Nlocal:         843.75 ave         855 max         840 min
Histogram: 6 0 0 0 0 0 0 0 0 2
Nghost:        1818.25 ave        1822 max        1807 min
Histogram: 2 0 0 0 0 0 0 0 0 6
Neighs:        24468.8 ave       24925 max       24232 min
Histogram: 3 0 1 2 0 0 1 0 0 1

Total # of neighbors = 195750
Ave neighs/atom = 29
Neighbor list builds = 0
Dangerous builds = 0

variable tmp equal pxx
variable pxx0 equal ${tmp}
variable pxx0 equal 1.4444438438934e-10
variable tmp equal pyy
variable pyy0 equal ${tmp}
variable pyy0 equal 1.38948731147609e-10
variable tmp equal pzz
variable pzz0 equal ${tmp}
variable pzz0 equal -2.3199891209392e-11
variable tmp equal pyz
variable pyz0 equal ${tmp}
variable pyz0 equal -4.29627614988741e-13
variable tmp equal pxz
variable pxz0 equal ${tmp}
variable pxz0 equal -4.93176699705826e-12
variable tmp equal pxy
variable pxy0 equal ${tmp}
variable pxy0 equal -3.72343932990243e-12

variable tmp equal lx
variable lx0 equal ${tmp}
variable lx0 equal 42.9975003919969
variable tmp equal ly
variable ly0 equal ${tmp}
variable ly0 equal 42.9975003919969
variable tmp equal lz
variable lz0 equal ${tmp}
variable lz0 equal 42.997500391997

# These formulas define the derivatives w.r.t. strain components
# Constants uses $, variables use v_
variable d1 equal -(v_pxx1-${pxx0})/(v_delta/v_len0)*${cfac}
variable d1 equal -(v_pxx1-1.4444438438934e-10)/(v_delta/v_len0)*${cfac}
variable d1 equal -(v_pxx1-1.4444438438934e-10)/(v_delta/v_len0)*0.0001
variable d2 equal -(v_pyy1-${pyy0})/(v_delta/v_len0)*${cfac}
variable d2 equal -(v_pyy1-1.38948731147609e-10)/(v_delta/v_len0)*${cfac}
variable d2 equal -(v_pyy1-1.38948731147609e-10)/(v_delta/v_len0)*0.0001
variable d3 equal -(v_pzz1-${pzz0})/(v_delta/v_len0)*${cfac}
variable d3 equal -(v_pzz1--2.3199891209392e-11)/(v_delta/v_len0)*${cfac}
variable d3 equal -(v_pzz1--2.3199891209392e-11)/(v_delta/v_len0)*0.0001
variable d4 equal -(v_pyz1-${pyz0})/(v_delta/v_len0)*${cfac}
variable d4 equal -(v_pyz1--4.29627614988741e-13)/(v_delta/v_len0)*${cfac}
variable d4 equal -(v_pyz1--4.29627614988741e-13)/(v_delta/v_len0)*0.0001
variable d5 equal -(v_pxz1-${pxz0})/(v_delta/v_len0)*${cfac}
variable d5 equal -(v_pxz1--4.93176699705826e-12)/(v_delta/v_len0)*${cfac}
variable d5 equal -(v_pxz1--4.93176699705826e-12)/(v_delta/v_len0)*0.0001
variable d6 equal -(v_pxy1-${pxy0})/(v_delta/v_len0)*${cfac}
variable d6 equal -(v_pxy1--3.72343932990243e-12)/(v_delta/v_len0)*${cfac}
variable d6 equal -(v_pxy1--3.72343932990243e-12)/(v_delta/v_len0)*0.0001

displace_atoms all random ${atomjiggle} ${atomjiggle} ${atomjiggle} 87287 units box
displace_atoms all random 1e-05 ${atomjiggle} ${atomjiggle} 87287 units box
displace_atoms all random 1e-05 1e-05 ${atomjiggle} 87287 units box
displace_atoms all random 1e-05 1e-05 1e-05 87287 units box
Displacing atoms ...

# Write restart
unfix 3
write_restart restart.equil
System init for write_restart ...

# uxx Perturbation

variable dir equal 1
include displace.mod
# NOTE: This script should not need to be
# modified. See in.elastic for more info.
#
# Find which reference length to use

if "${dir} == 1" then    "variable len0 equal ${lx0}"
variable len0 equal ${lx0}
variable len0 equal 42.9975003919969
if "${dir} == 2" then    "variable len0 equal ${ly0}"
if "${dir} == 3" then    "variable len0 equal ${lz0}"
if "${dir} == 4" then    "variable len0 equal ${lz0}"
if "${dir} == 5" then    "variable len0 equal ${lz0}"
if "${dir} == 6" then    "variable len0 equal ${ly0}"

# Reset box and simulation parameters

clear
box tilt large

The 'box' command has been removed and will be ignored

read_restart restart.equil
Reading restart file ...
  restart file = 2 Aug 2023, LAMMPS = 2 Aug 2023
  restoring atom style atomic from restart
  triclinic box = (-0.003750196 -0.003750196 -0.003750196) to (42.99375 42.99375 42.99375) with tilt (0 0 0)
  2 by 2 by 2 MPI processor grid
  pair style eam/alloy stores no restart info
  6750 atoms
  read_restart CPU = 0.001 seconds
include potential.mod
# NOTE: This script can be modified for different pair styles
# See in.elastic for more info.

# Choose potential
pair_style      eam/alloy
pair_coeff      * * Fe_Ack.eam Fe

# Need to set mass to something, just to satisfy LAMMPS
mass            1 55.85   # Iron

# Setup neighbor style
neighbor 1.0 nsq
neigh_modify once no every 1 delay 0 check yes

# Setup minimization style
min_style	     cg
min_modify	     dmax ${dmax} line quadratic
min_modify	     dmax 0.01 line quadratic

# Setup output
thermo		1
thermo_style custom step temp pe press pxx pyy pzz pxy pxz pyz lx ly lz vol
thermo_modify norm no

# Negative deformation

variable delta equal -${up}*${len0}
variable delta equal -1e-06*${len0}
variable delta equal -1e-06*42.9975003919969
variable deltaxy equal -${up}*xy
variable deltaxy equal -1e-06*xy
variable deltaxz equal -${up}*xz
variable deltaxz equal -1e-06*xz
variable deltayz equal -${up}*yz
variable deltayz equal -1e-06*yz
if "${dir} == 1" then    "change_box all x delta 0 ${delta} xy delta ${deltaxy} xz delta ${deltaxz} remap units box"
change_box all x delta 0 ${delta} xy delta ${deltaxy} xz delta ${deltaxz} remap units box
change_box all x delta 0 -4.29975003919969e-05 xy delta ${deltaxy} xz delta ${deltaxz} remap units box
change_box all x delta 0 -4.29975003919969e-05 xy delta -0 xz delta ${deltaxz} remap units box
change_box all x delta 0 -4.29975003919969e-05 xy delta -0 xz delta -0 remap units box
Changing box ...
  triclinic box = (-0.003750196 -0.003750196 -0.003750196) to (42.993707 42.99375 42.99375) with tilt (0 0 0)
  triclinic box = (-0.003750196 -0.003750196 -0.003750196) to (42.993707 42.99375 42.99375) with tilt (0 0 0)
  triclinic box = (-0.003750196 -0.003750196 -0.003750196) to (42.993707 42.99375 42.99375) with tilt (0 0 0)
if "${dir} == 2" then    "change_box all y delta 0 ${delta} yz delta ${deltayz} remap units box"
if "${dir} == 3" then    "change_box all z delta 0 ${delta} remap units box"
if "${dir} == 4" then    "change_box all yz delta ${delta} remap units box"
if "${dir} == 5" then    "change_box all xz delta ${delta} remap units box"
if "${dir} == 6" then    "change_box all xy delta ${delta} remap units box"

# Relax atoms positions

minimize ${etol} ${ftol} ${maxiter} ${maxeval}
minimize 0 ${ftol} ${maxiter} ${maxeval}
minimize 0 1e-15 ${maxiter} ${maxeval}
minimize 0 1e-15 100 ${maxeval}
minimize 0 1e-15 100 1000
Neighbor list info ...
  update: every = 1 steps, delay = 0 steps, check = yes
  max neighbors/atom: 2000, page size: 100000
  master list distance cutoff = 5.156425
  ghost atom cutoff = 5.156425
  1 neighbor lists, perpetual/occasional/extra = 1 0 0
  (1) pair eam/alloy, perpetual
      attributes: half, newton on
      pair build: half/nsq/newton
      stencil: none
      bin: none
Per MPI rank memory allocation (min/avg/max) = 4.462 | 4.466 | 4.472 Mbytes
   Step          Temp          PotEng         Press           Pxx            Pyy            Pzz            Pxy            Pxz            Pyz             Lx             Ly             Lz           Volume    
       100   0             -29133.001      1.7791767      2.4348993      1.4513144      1.4513164      2.8259912e-07  1.2596132e-05  3.8478015e-06  42.997457      42.9975        42.9975        79493.056    
       101   0             -29133.001      1.7787806      2.4345035      1.4509192      1.4509191      3.3698262e-07  9.9575501e-08 -6.6130461e-07  42.997457      42.9975        42.9975        79493.056    
       102   0             -29133.001      1.7787293      2.4344521      1.4508679      1.450868       2.2234257e-07  3.4057403e-08 -5.9583825e-08  42.997457      42.9975        42.9975        79493.056    
       103   0             -29133.001      1.7787182      2.4344409      1.4508569      1.4508569      3.1405474e-08  3.959495e-08   1.3986469e-08  42.997457      42.9975        42.9975        79493.056    
       104   0             -29133.001      1.778715       2.4344377      1.4508537      1.4508537      1.3360958e-08  2.954749e-08   5.7262258e-09  42.997457      42.9975        42.9975        79493.056    
       105   0             -29133.001      1.778714       2.4344367      1.4508527      1.4508527     -6.8719006e-10  3.2887454e-08  7.065448e-09   42.997457      42.9975        42.9975        79493.056    
       106   0             -29133.001      1.7787136      2.4344363      1.4508523      1.4508523      2.9307167e-09  1.6158812e-08  5.5286685e-09  42.997457      42.9975        42.9975        79493.056    
       107   0             -29133.001      1.7787135      2.4344361      1.4508521      1.4508521      2.6503844e-09  8.4547935e-09  5.3480099e-09  42.997457      42.9975        42.9975        79493.056    
       108   0             -29133.001      1.7787134      2.4344361      1.450852       1.450852       1.3512339e-09  4.7059666e-09  3.961457e-09   42.997457      42.9975        42.9975        79493.056    
       109   0             -29133.001      1.7787133      2.434436       1.450852       1.450852      -1.2243504e-10  2.6180459e-09  2.3179865e-09  42.997457      42.9975        42.9975        79493.056    
       110   0             -29133.001      1.7787133      2.434436       1.4508519      1.450852      -9.2233981e-10  1.6789148e-09  1.2711262e-09  42.997457      42.9975        42.9975        79493.056    
       111   0             -29133.001      1.7787133      2.434436       1.4508519      1.4508519     -1.0624344e-09  1.1055046e-09  3.2830743e-10  42.997457      42.9975        42.9975        79493.056    
       112   0             -29133.001      1.7787133      2.434436       1.4508519      1.4508519     -1.0342579e-09  6.6012349e-10  1.2015264e-10  42.997457      42.9975        42.9975        79493.056    
       113   0             -29133.001      1.7787133      2.434436       1.4508519      1.4508519     -9.252398e-10   3.186766e-10  -1.7177961e-10  42.997457      42.9975        42.9975        79493.056    
       114   0             -29133.001      1.7787133      2.4344359      1.4508519      1.4508519     -7.9765817e-10  5.7999786e-11 -3.6425298e-10  42.997457      42.9975        42.9975        79493.056    
       115   0             -29133.001      1.7787133      2.4344359      1.4508519      1.4508519     -6.9203232e-10 -1.3153779e-10 -3.8229736e-10  42.997457      42.9975        42.9975        79493.056    
       116   0             -29133.001      1.7787133      2.4344359      1.4508519      1.4508519     -5.8101823e-10 -2.0103012e-10 -3.3460864e-10  42.997457      42.9975        42.9975        79493.056    
       117   0             -29133.001      1.7787132      2.4344359      1.4508519      1.4508519     -5.1065768e-10 -2.4606946e-10 -2.282757e-10   42.997457      42.9975        42.9975        79493.056    
       118   0             -29133.001      1.7787132      2.4344359      1.4508519      1.4508519     -4.1813997e-10 -2.6010398e-10 -1.2602423e-10  42.997457      42.9975        42.9975        79493.056    
       119   0             -29133.001      1.7787132      2.4344359      1.4508519      1.4508519     -3.684508e-10  -2.3156952e-10 -4.4896131e-11  42.997457      42.9975        42.9975        79493.056    
       120   0             -29133.001      1.7787132      2.4344359      1.4508519      1.4508519     -2.7401319e-10 -2.5881509e-10 -6.6592347e-12  42.997457      42.9975        42.9975        79493.056    
       121   0             -29133.001      1.7787132      2.4344359      1.4508519      1.4508519     -2.5169938e-10 -1.9719927e-10  2.0693751e-11  42.997457      42.9975        42.9975        79493.056    
       122   0             -29133.001      1.7787132      2.4344359      1.4508519      1.4508519     -2.0589924e-10 -1.7213764e-10  2.9787544e-11  42.997457      42.9975        42.9975        79493.056    
       123   0             -29133.001      1.7787132      2.4344359      1.4508519      1.4508519     -1.3528361e-10 -1.7532404e-10  2.6135706e-11  42.997457      42.9975        42.9975        79493.056    
       124   0             -29133.001      1.7787132      2.4344359      1.4508519      1.4508519     -1.2267671e-10 -1.3705135e-10  5.3345482e-11  42.997457      42.9975        42.9975        79493.056    
       125   0             -29133.001      1.7787132      2.4344359      1.4508519      1.4508519     -7.6840766e-11 -1.0658356e-10  4.059985e-11   42.997457      42.9975        42.9975        79493.056    
       126   0             -29133.001      1.7787132      2.4344359      1.4508519      1.4508519     -6.2627238e-11 -8.2560189e-11  2.8856684e-11  42.997457      42.9975        42.9975        79493.056    
       127   0             -29133.001      1.7787132      2.4344359      1.4508519      1.4508519     -3.6366224e-11 -7.7333048e-11  2.5133241e-11  42.997457      42.9975        42.9975        79493.056    
       128   0             -29133.001      1.7787132      2.4344359      1.4508519      1.4508519     -2.1548532e-11 -4.8762783e-11  2.2197449e-12  42.997457      42.9975        42.9975        79493.056    
       129   0             -29133.001      1.7787132      2.4344359      1.4508519      1.4508519     -2.1888654e-11 -3.3725802e-11  7.1604674e-14  42.997457      42.9975        42.9975        79493.056    
       130   0             -29133.001      1.7787132      2.4344359      1.4508519      1.4508519     -8.1226552e-12 -2.5025834e-11 -4.3678851e-12  42.997457      42.9975        42.9975        79493.056    
       131   0             -29133.001      1.7787132      2.4344359      1.4508519      1.4508519      1.202511e-11  -2.6923357e-11 -9.881445e-12   42.997457      42.9975        42.9975        79493.056    
       132   0             -29133.001      1.7787132      2.4344359      1.4508519      1.4508519      2.3804079e-11  1.4320935e-12  2.635052e-11   42.997457      42.9975        42.9975        79493.056    
       133   0             -29133.001      1.7787132      2.4344359      1.4508519      1.4508519      3.4549255e-12 -4.4036875e-12 -6.0147926e-12  42.997457      42.9975        42.9975        79493.056    
       134   0             -29133.001      1.7787132      2.4344359      1.4508519      1.4508519      5.1197342e-12 -1.5538214e-11  7.8765142e-12  42.997457      42.9975        42.9975        79493.056    
       135   0             -29133.001      1.7787132      2.4344359      1.4508519      1.4508519     -1.2119091e-11  2.7925823e-12  2.7925823e-12  42.997457      42.9975        42.9975        79493.056    
       136   0             -29133.001      1.7787132      2.4344359      1.4508519      1.4508519     -3.3833209e-12 -2.2340658e-11 -2.7711009e-11  42.997457      42.9975        42.9975        79493.056    
       137   0             -29133.001      1.7787132      2.4344359      1.4508519      1.4508519      3.6965913e-12  8.9147819e-12  1.5609819e-11  42.997457      42.9975        42.9975        79493.056    
       138   0             -29133.001      1.7787132      2.4344359      1.4508519      1.4508519     -5.8626327e-12 -1.9906099e-11 -8.3061422e-12  42.997457      42.9975        42.9975        79493.056    
       139   0             -29133.001      1.7787132      2.4344359      1.4508519      1.4508519      7.200745e-12  -1.041848e-11   1.7041912e-11  42.997457      42.9975        42.9975        79493.056    
       140   0             -29133.001      1.7787132      2.4344359      1.4508519      1.4508519     -2.5061636e-12 -1.210119e-11   1.6755494e-11  42.997457      42.9975        42.9975        79493.056    
       141   0             -29133.001      1.7787132      2.4344359      1.4508519      1.4508519     -3.8129489e-12 -1.7901169e-13  3.4370244e-12  42.997457      42.9975        42.9975        79493.056    
       142   0             -29133.001      1.7787132      2.4344359      1.4508519      1.4508519     -1.6227409e-11  5.4061529e-12 -1.5896238e-11  42.997457      42.9975        42.9975        79493.056    
       143   0             -29133.001      1.7787132      2.4344359      1.4508519      1.4508519      2.750067e-11  -1.4213528e-11 -1.8402401e-11  42.997457      42.9975        42.9975        79493.056    
       144   0             -29133.001      1.7787132      2.4344359      1.4508519      1.4508519      1.4540224e-11 -8.9505843e-13  2.864187e-12   42.997457      42.9975        42.9975        79493.056    
       145   0             -29133.001      1.7787132      2.4344359      1.4508519      1.4508519      4.5245203e-12  1.3998714e-11  3.5802337e-12  42.997457      42.9975        42.9975        79493.056    
       146   0             -29133.001      1.7787132      2.4344359      1.4508519      1.4508519     -3.0118716e-12 -6.6234324e-12  2.864187e-13   42.997457      42.9975        42.9975        79493.056    
       147   0             -29133.001      1.7787132      2.4344359      1.4508519      1.4508519      1.547556e-11   1.4822168e-11 -3.6518384e-12  42.997457      42.9975        42.9975        79493.056    
       148   0             -29133.001      1.7787132      2.4344359      1.4508519      1.4508519     -3.1461304e-11 -3.4728267e-12 -1.9333262e-12  42.997457      42.9975        42.9975        79493.056    
       149   0             -29133.001      1.7787132      2.4344359      1.4508519      1.4508519     -1.7453639e-11  1.317526e-11   8.8789796e-12  42.997457      42.9975        42.9975        79493.056    
       150   0             -29133.001      1.7787132      2.4344359      1.4508519      1.4508519      1.1224033e-11 -2.6601136e-11 -7.3752814e-12  42.997457      42.9975        42.9975        79493.056    
       151   0             -29133.001      1.7787132      2.4344359      1.4508519      1.4508519      1.1662611e-11 -2.5419659e-11 -7.3752814e-12  42.997457      42.9975        42.9975        79493.056    
       152   0             -29133.001      1.7787132      2.4344359      1.4508519      1.4508519     -1.5940991e-11 -9.666631e-12   3.8666524e-12  42.997457      42.9975        42.9975        79493.056    
       153   0             -29133.001      1.7787132      2.4344359      1.4508519      1.4508519     -2.1208409e-11  5.0481295e-12  2.0407332e-11  42.997457      42.9975        42.9975        79493.056    
       154   0             -29133.001      1.7787132      2.4344359      1.4508519      1.4508519      5.4419552e-12 -7.2678744e-12  3.3654197e-12  42.997457      42.9975        42.9975        79493.056    
       155   0             -29133.001      1.7787132      2.4344359      1.4508519      1.4508519      1.5873861e-11  7.4110838e-12  3.0360382e-11  42.997457      42.9975        42.9975        79493.056    
       156   0             -29133.001      1.7787132      2.4344359      1.4508519      1.4508519      2.3459481e-11  4.4036875e-12  1.5538214e-11  42.997457      42.9975        42.9975        79493.056    
       157   0             -29133.001      1.7787132      2.4344359      1.4508519      1.4508519      6.0684961e-12 -7.5542931e-12 -5.4419552e-12  42.997457      42.9975        42.9975        79493.056    
       158   0             -29133.001      1.7787132      2.4344359      1.4508519      1.4508519     -1.0682522e-11 -4.5110945e-12  2.1481402e-12  42.997457      42.9975        42.9975        79493.056    
       159   0             -29133.001      1.7787132      2.4344359      1.4508519      1.4508519      6.7576911e-12 -3.3654197e-12 -1.2530818e-11  42.997457      42.9975        42.9975        79493.056    
       160   0             -29133.001      1.7787132      2.4344359      1.4508519      1.4508519     -1.3739147e-12 -2.3271519e-12 -7.5900955e-12  42.997457      42.9975        42.9975        79493.056    
       161   0             -29133.001      1.7787132      2.4344359      1.4508519      1.4508519     -5.5046093e-13 -7.1604674e-13 -9.237003e-12   42.997457      42.9975        42.9975        79493.056    
       162   0             -29133.001      1.7787132      2.4344359      1.4508519      1.4508519     -4.7259085e-12  4.6185015e-12 -9.3086076e-13  42.997457      42.9975        42.9975        79493.056    
       163   0             -29133.001      1.7787132      2.4344359      1.4508519      1.4508519      2.405917e-11  -4.1888734e-12 -8.8073749e-12  42.997457      42.9975        42.9975        79493.056    
       164   0             -29133.001      1.7787132      2.4344359      1.4508519      1.4508519     -1.4141923e-12  1.0382678e-11  2.5634473e-11  42.997457      42.9975        42.9975        79493.056    
       165   0             -29133.001      1.7787132      2.4344359      1.4508519      1.4508519      1.3278192e-11  6.1938043e-12  3.079001e-12   42.997457      42.9975        42.9975        79493.056    
       166   0             -29133.001      1.7787132      2.4344359      1.4508519      1.4508519     -1.1980357e-11  1.4285132e-11  1.8617215e-12  42.997457      42.9975        42.9975        79493.056    
       167   0             -29133.001      1.7787132      2.4344359      1.4508519      1.4508519     -1.5081734e-12  3.139865e-11   1.6755494e-11  42.997457      42.9975        42.9975        79493.056    
       168   0             -29133.001      1.7787132      2.4344359      1.4508519      1.4508519      1.4678958e-12 -5.3345482e-12 -1.5681424e-11  42.997457      42.9975        42.9975        79493.056    
       169   0             -29133.001      1.7787132      2.4344359      1.4508519      1.4508519     -1.0794405e-11 -4.2246758e-12  9.8098404e-12  42.997457      42.9975        42.9975        79493.056    
       170   0             -29133.001      1.7787132      2.4344359      1.4508519      1.4508519     -7.6214225e-12 -9.3802123e-12  8.4493515e-12  42.997457      42.9975        42.9975        79493.056    
       171   0             -29133.001      1.7787132      2.4344359      1.4508519      1.4508519     -1.1089774e-11 -3.508629e-12   3.9955408e-11  42.997457      42.9975        42.9975        79493.056    
       172   0             -29133.001      1.7787132      2.4344359      1.4508519      1.4508519     -6.7039876e-12  4.4394898e-12  2.5419659e-11  42.997457      42.9975        42.9975        79493.056    
       173   0             -29133.001      1.7787132      2.4344359      1.4508519      1.4508519      1.915425e-12  -1.0346875e-11  1.7829564e-11  42.997457      42.9975        42.9975        79493.056    
       174   0             -29133.001      1.7787132      2.4344359      1.4508519      1.4508519      3.478197e-11   2.8928288e-11 -8.5925609e-12  42.997457      42.9975        42.9975        79493.056    
       175   0             -29133.001      1.7787132      2.4344359      1.4508519      1.4508519      1.8438204e-11 -1.0275271e-11  1.3891307e-11  42.997457      42.9975        42.9975        79493.056    
       176   0             -29133.001      1.7787132      2.4344359      1.4508519      1.4508519      6.1669526e-12 -3.3654197e-12 -4.7259085e-12  42.997457      42.9975        42.9975        79493.056    
       177   0             -29133.001      1.7787132      2.4344359      1.4508519      1.4508519     -5.8715833e-12  3.2257906e-11 -1.6898703e-11  42.997457      42.9975        42.9975        79493.056    
       178   0             -29133.001      1.7787132      2.4344359      1.4508519      1.4508519      3.1506057e-12 -2.7925823e-11  1.0167864e-11  42.997457      42.9975        42.9975        79493.056    
       179   0             -29133.001      1.7787132      2.4344359      1.4508519      1.4508519     -1.2665077e-11  8.6641656e-12 -7.0888627e-12  42.997457      42.9975        42.9975        79493.056    
       180   0             -29133.001      1.7787132      2.4344359      1.4508519      1.4508519     -7.5453425e-12 -2.1302391e-11 -8.8073749e-12  42.997457      42.9975        42.9975        79493.056    
       181   0             -29133.001      1.7787132      2.4344359      1.4508519      1.4508519      1.8832029e-11  9.4876193e-12 -1.6612284e-11  42.997457      42.9975        42.9975        79493.056    
       182   0             -29133.001      1.7787132      2.4344359      1.4508519      1.4508519     -1.8259192e-11 -2.0729553e-11 -2.2913496e-12  42.997457      42.9975        42.9975        79493.056    
       183   0             -29133.001      1.7787132      2.4344359      1.4508519      1.4508519     -3.0190321e-11  2.0407332e-12  2.1982635e-11  42.997457      42.9975        42.9975        79493.056    
       184   0             -29133.001      1.7787132      2.4344359      1.4508519      1.4508519     -1.0355826e-11 -1.9333262e-12 -9.881445e-12   42.997457      42.9975        42.9975        79493.056    
       185   0             -29133.001      1.7787132      2.4344359      1.4508519      1.4508519     -1.700611e-13  -9.6308287e-12  9.7382357e-12  42.997457      42.9975        42.9975        79493.056    
       186   0             -29133.001      1.7787132      2.4344359      1.4508519      1.4508519      1.9288509e-11  2.2877693e-11 -1.7256726e-11  42.997457      42.9975        42.9975        79493.056    
       187   0             -29133.001      1.7787132      2.4344359      1.4508519      1.4508519      1.2665077e-12 -1.149255e-11  -1.0454282e-11  42.997457      42.9975        42.9975        79493.056    
       188   0             -29133.001      1.7787132      2.4344359      1.4508519      1.4508519     -4.7259085e-12 -5.943188e-12  -4.9407225e-12  42.997457      42.9975        42.9975        79493.056    
       189   0             -29133.001      1.7787132      2.4344359      1.4508519      1.4508519      5.7015222e-12  1.2817237e-11 -1.9333262e-11  42.997457      42.9975        42.9975        79493.056    
       190   0             -29133.001      1.7787132      2.4344359      1.4508519      1.4508519     -2.3674295e-12  1.6469075e-12  2.1481402e-11  42.997457      42.9975        42.9975        79493.056    
       191   0             -29133.001      1.7787132      2.4344359      1.4508519      1.4508519     -8.7536714e-12  5.6925716e-12  1.102712e-11   42.997457      42.9975        42.9975        79493.056    
       192   0             -29133.001      1.7787132      2.4344359      1.4508519      1.4508519     -6.6816112e-12 -2.2913496e-12 -5.5135599e-12  42.997457      42.9975        42.9975        79493.056    
       193   0             -29133.001      1.7787132      2.4344359      1.4508519      1.4508519     -8.7178691e-12 -1.8187587e-11 -2.7925823e-12  42.997457      42.9975        42.9975        79493.056    
       194   0             -29133.001      1.7787132      2.4344359      1.4508519      1.4508519     -7.8675636e-12  2.1194984e-11  2.1338193e-11  42.997457      42.9975        42.9975        79493.056    
       195   0             -29133.001      1.7787132      2.4344359      1.4508519      1.4508519      8.9192572e-12  2.1660414e-11 -1.7686355e-11  42.997457      42.9975        42.9975        79493.056    
       196   0             -29133.001      1.7787132      2.4344359      1.4508519      1.4508519      7.1783686e-12 -6.2296066e-12 -5.0839319e-12  42.997457      42.9975        42.9975        79493.056    
       197   0             -29133.001      1.7787132      2.4344359      1.4508519      1.4508519      1.3604888e-11 -2.6780148e-11 -2.2483868e-11  42.997457      42.9975        42.9975        79493.056    
       198   0             -29133.001      1.7787132      2.4344359      1.4508519      1.4508519      2.3253618e-11 -6.6592347e-12 -1.4607354e-11  42.997457      42.9975        42.9975        79493.056    
       199   0             -29133.001      1.7787132      2.4344359      1.4508519      1.4508519     -2.8552364e-12  2.3629542e-11 -8.5209562e-12  42.997457      42.9975        42.9975        79493.056    
       200   0             -29133.001      1.7787132      2.4344359      1.4508519      1.4508519     -1.8205488e-11 -2.2877693e-11 -9.3086076e-12  42.997457      42.9975        42.9975        79493.056    
Loop time of 0.258522 on 8 procs for 100 steps with 6750 atoms

97.4% CPU use with 8 MPI tasks x no OpenMP threads

Minimization stats:
  Stopping criterion = max iterations
  Energy initial, next-to-last, final = 
     -29133.0007101131  -29133.0007142661  -29133.0007142661
  Force two-norm initial, final = 0.011757452 4.3726414e-12
  Force max component initial, final = 0.00024587471 1.5693696e-13
  Final line search alpha, max atom move = 1 1.5693696e-13
  Iterations, force evaluations = 100 200

MPI task timing breakdown:
Section |  min time  |  avg time  |  max time  |%varavg| %total
---------------------------------------------------------------
Pair    | 0.20351    | 0.20695    | 0.21038    |   0.5 | 80.05
Neigh   | 0          | 0          | 0          |   0.0 |  0.00
Comm    | 0.023489   | 0.027053   | 0.030305   |   1.5 | 10.46
Output  | 0.0053221  | 0.006025   | 0.010852   |   2.4 |  2.33
Modify  | 0          | 0          | 0          |   0.0 |  0.00
Other   |            | 0.01849    |            |       |  7.15

Nlocal:         843.75 ave         857 max         828 min
Histogram: 1 0 0 1 2 0 1 2 0 1
Nghost:        1818.25 ave        1834 max        1805 min
Histogram: 1 0 2 1 0 2 1 0 0 1
Neighs:        24468.8 ave       24767 max       23943 min
Histogram: 1 0 0 0 0 2 2 1 0 2

Total # of neighbors = 195750
Ave neighs/atom = 29
Neighbor list builds = 0
Dangerous builds = 0

# Obtain new stress tensor

variable tmp equal pxx
variable pxx1 equal ${tmp}
variable pxx1 equal 2.43443593426276
variable tmp equal pyy
variable pyy1 equal ${tmp}
variable pyy1 equal 1.45085189848869
variable tmp equal pzz
variable pzz1 equal ${tmp}
variable pzz1 equal 1.45085189832719
variable tmp equal pxy
variable pxy1 equal ${tmp}
variable pxy1 equal -1.82054883906363e-11
variable tmp equal pxz
variable pxz1 equal ${tmp}
variable pxz1 equal -2.28776933758439e-11
variable tmp equal pyz
variable pyz1 equal ${tmp}
variable pyz1 equal -9.3086076333637e-12

# Compute elastic constant from pressure tensor

variable C1neg equal ${d1}
variable C1neg equal 243.443593411832
variable C2neg equal ${d2}
variable C2neg equal 145.085189834974
variable C3neg equal ${d3}
variable C3neg equal 145.085189835039
variable C4neg equal ${d4}
variable C4neg equal -8.87898001837496e-10
variable C5neg equal ${d5}
variable C5neg equal -1.79459263787856e-09
variable C6neg equal ${d6}
variable C6neg equal -1.44820490607339e-09

# Reset box and simulation parameters

clear
box tilt large

The 'box' command has been removed and will be ignored

read_restart restart.equil
Reading restart file ...
  restart file = 2 Aug 2023, LAMMPS = 2 Aug 2023
  restoring atom style atomic from restart
  triclinic box = (-0.003750196 -0.003750196 -0.003750196) to (42.99375 42.99375 42.99375) with tilt (0 0 0)
  2 by 2 by 2 MPI processor grid
  pair style eam/alloy stores no restart info
  6750 atoms
  read_restart CPU = 0.001 seconds
include potential.mod
# NOTE: This script can be modified for different pair styles
# See in.elastic for more info.

# Choose potential
pair_style      eam/alloy
pair_coeff      * * Fe_Ack.eam Fe

# Need to set mass to something, just to satisfy LAMMPS
mass            1 55.85   # Iron

# Setup neighbor style
neighbor 1.0 nsq
neigh_modify once no every 1 delay 0 check yes

# Setup minimization style
min_style	     cg
min_modify	     dmax ${dmax} line quadratic
min_modify	     dmax 0.01 line quadratic

# Setup output
thermo		1
thermo_style custom step temp pe press pxx pyy pzz pxy pxz pyz lx ly lz vol
thermo_modify norm no

# Positive deformation

variable delta equal ${up}*${len0}
variable delta equal 1e-06*${len0}
variable delta equal 1e-06*42.9975003919969
variable deltaxy equal ${up}*xy
variable deltaxy equal 1e-06*xy
variable deltaxz equal ${up}*xz
variable deltaxz equal 1e-06*xz
variable deltayz equal ${up}*yz
variable deltayz equal 1e-06*yz
if "${dir} == 1" then    "change_box all x delta 0 ${delta} xy delta ${deltaxy} xz delta ${deltaxz} remap units box"
change_box all x delta 0 ${delta} xy delta ${deltaxy} xz delta ${deltaxz} remap units box
change_box all x delta 0 4.29975003919969e-05 xy delta ${deltaxy} xz delta ${deltaxz} remap units box
change_box all x delta 0 4.29975003919969e-05 xy delta 0 xz delta ${deltaxz} remap units box
change_box all x delta 0 4.29975003919969e-05 xy delta 0 xz delta 0 remap units box
Changing box ...
  triclinic box = (-0.003750196 -0.003750196 -0.003750196) to (42.993793 42.99375 42.99375) with tilt (0 0 0)
  triclinic box = (-0.003750196 -0.003750196 -0.003750196) to (42.993793 42.99375 42.99375) with tilt (0 0 0)
  triclinic box = (-0.003750196 -0.003750196 -0.003750196) to (42.993793 42.99375 42.99375) with tilt (0 0 0)
if "${dir} == 2" then    "change_box all y delta 0 ${delta} yz delta ${deltayz} remap units box"
if "${dir} == 3" then    "change_box all z delta 0 ${delta} remap units box"
if "${dir} == 4" then    "change_box all yz delta ${delta} remap units box"
if "${dir} == 5" then    "change_box all xz delta ${delta} remap units box"
if "${dir} == 6" then    "change_box all xy delta ${delta} remap units box"

# Relax atoms positions

minimize ${etol} ${ftol} ${maxiter} ${maxeval}
minimize 0 ${ftol} ${maxiter} ${maxeval}
minimize 0 1e-15 ${maxiter} ${maxeval}
minimize 0 1e-15 100 ${maxeval}
minimize 0 1e-15 100 1000
Neighbor list info ...
  update: every = 1 steps, delay = 0 steps, check = yes
  max neighbors/atom: 2000, page size: 100000
  master list distance cutoff = 5.156425
  ghost atom cutoff = 5.156425
  1 neighbor lists, perpetual/occasional/extra = 1 0 0
  (1) pair eam/alloy, perpetual
      attributes: half, newton on
      pair build: half/nsq/newton
      stencil: none
      bin: none
Per MPI rank memory allocation (min/avg/max) = 4.462 | 4.466 | 4.472 Mbytes
   Step          Temp          PotEng         Press           Pxx            Pyy            Pzz            Pxy            Pxz            Pyz             Lx             Ly             Lz           Volume    
       100   0             -29133.001     -1.77823       -2.433942      -1.450375      -1.4503731      2.8260302e-07  1.2596171e-05  3.847782e-06   42.997543      42.9975        42.9975        79493.215    
       101   0             -29133.001     -1.7786262     -2.4343378     -1.4507703     -1.4507704      3.3698129e-07  9.9580529e-08 -6.6131288e-07  42.997543      42.9975        42.9975        79493.215    
       102   0             -29133.001     -1.7786774     -2.4343892     -1.4508215     -1.4508215      2.2234637e-07  3.4039398e-08 -5.9543321e-08  42.997543      42.9975        42.9975        79493.215    
       103   0             -29133.001     -1.7786885     -2.4344004     -1.4508326     -1.4508326      3.1415888e-08  3.960418e-08   1.4020525e-08  42.997543      42.9975        42.9975        79493.215    
       104   0             -29133.001     -1.7786917     -2.4344036     -1.4508358     -1.4508358      1.3330114e-08  2.9587529e-08  5.7035873e-09  42.997543      42.9975        42.9975        79493.215    
       105   0             -29133.001     -1.7786927     -2.4344046     -1.4508368     -1.4508368     -7.1935254e-10  3.2884954e-08  7.0413748e-09  42.997543      42.9975        42.9975        79493.215    
       106   0             -29133.001     -1.7786931     -2.434405      -1.4508371     -1.4508371      2.9760544e-09  1.6134112e-08  5.509539e-09   42.997543      42.9975        42.9975        79493.215    
       107   0             -29133.001     -1.7786933     -2.4344052     -1.4508373     -1.4508373      2.6289156e-09  8.4087349e-09  5.356735e-09   42.997543      42.9975        42.9975        79493.215    
       108   0             -29133.001     -1.7786934     -2.4344052     -1.4508374     -1.4508374      1.3462994e-09  4.747989e-09   3.9363159e-09  42.997543      42.9975        42.9975        79493.215    
       109   0             -29133.001     -1.7786934     -2.4344053     -1.4508375     -1.4508375     -1.810252e-10   2.6028963e-09  2.3130412e-09  42.997543      42.9975        42.9975        79493.215    
       110   0             -29133.001     -1.7786934     -2.4344053     -1.4508375     -1.4508375     -9.2378795e-10  1.6752596e-09  1.2632471e-09  42.997543      42.9975        42.9975        79493.215    
       111   0             -29133.001     -1.7786935     -2.4344053     -1.4508375     -1.4508375     -1.0353523e-09  1.1329985e-09  3.286648e-10   42.997543      42.9975        42.9975        79493.215    
       112   0             -29133.001     -1.7786935     -2.4344053     -1.4508375     -1.4508375     -1.0367754e-09  6.6900113e-10  9.7740185e-11  42.997543      42.9975        42.9975        79493.215    
       113   0             -29133.001     -1.7786935     -2.4344053     -1.4508375     -1.4508375     -8.8485299e-10  3.2139694e-10 -2.0020627e-10  42.997543      42.9975        42.9975        79493.215    
       114   0             -29133.001     -1.7786935     -2.4344054     -1.4508375     -1.4508375     -7.5527564e-10  5.8142879e-11 -3.6282016e-10  42.997543      42.9975        42.9975        79493.215    
       115   0             -29133.001     -1.7786935     -2.4344054     -1.4508375     -1.4508375     -6.546489e-10  -1.3697947e-10 -3.9518541e-10  42.997543      42.9975        42.9975        79493.215    
       116   0             -29133.001     -1.7786935     -2.4344054     -1.4508375     -1.4508375     -5.9472038e-10 -2.2773821e-10 -3.6482508e-10  42.997543      42.9975        42.9975        79493.215    
       117   0             -29133.001     -1.7786935     -2.4344054     -1.4508375     -1.4508375     -5.0431071e-10 -2.4420725e-10 -2.5498373e-10  42.997543      42.9975        42.9975        79493.215    
       118   0             -29133.001     -1.7786935     -2.4344054     -1.4508375     -1.4508375     -4.3163211e-10 -2.6160715e-10 -1.2344621e-10  42.997543      42.9975        42.9975        79493.215    
       119   0             -29133.001     -1.7786935     -2.4344054     -1.4508376     -1.4508376     -3.6023344e-10 -2.2455181e-10 -3.5730661e-11  42.997543      42.9975        42.9975        79493.215    
       120   0             -29133.001     -1.7786935     -2.4344054     -1.4508376     -1.4508376     -2.9748997e-10 -1.9676925e-10  1.0239448e-11  42.997543      42.9975        42.9975        79493.215    
       121   0             -29133.001     -1.7786935     -2.4344054     -1.4508376     -1.4508376     -2.5020413e-10 -2.2874067e-10  2.9357858e-11  42.997543      42.9975        42.9975        79493.215    
       122   0             -29133.001     -1.7786935     -2.4344054     -1.4508376     -1.4508376     -1.8503506e-10 -1.9490753e-10  4.1101001e-11  42.997543      42.9975        42.9975        79493.215    
       123   0             -29133.001     -1.7786935     -2.4344054     -1.4508376     -1.4508376     -1.603494e-10  -1.6798423e-10  4.3177532e-11  42.997543      42.9975        42.9975        79493.215    
       124   0             -29133.001     -1.7786935     -2.4344054     -1.4508376     -1.4508376     -1.0886574e-10 -1.6494104e-10  3.429857e-11   42.997543      42.9975        42.9975        79493.215    
       125   0             -29133.001     -1.7786935     -2.4344054     -1.4508376     -1.4508376     -8.9962143e-11 -1.2674002e-10  1.7399901e-11  42.997543      42.9975        42.9975        79493.215    
       126   0             -29133.001     -1.7786935     -2.4344054     -1.4508376     -1.4508376     -4.3535555e-11 -9.9745112e-11 -3.508622e-12   42.997543      42.9975        42.9975        79493.215    
       127   0             -29133.001     -1.7786935     -2.4344054     -1.4508376     -1.4508376     -2.7129167e-11 -7.8013136e-11  1.5538183e-11  42.997543      42.9975        42.9975        79493.215    
       128   0             -29133.001     -1.7786935     -2.4344054     -1.4508376     -1.4508376     -4.370114e-11  -5.0481194e-11 -5.0123172e-13  42.997543      42.9975        42.9975        79493.215    
       129   0             -29133.001     -1.7786935     -2.4344054     -1.4508376     -1.4508376     -2.2148176e-11 -2.6493676e-11  1.1957957e-11  42.997543      42.9975        42.9975        79493.215    
       130   0             -29133.001     -1.7786935     -2.4344054     -1.4508376     -1.4508376     -1.1358269e-11 -1.0597471e-11  5.8715715e-12  42.997543      42.9975        42.9975        79493.215    
       131   0             -29133.001     -1.7786935     -2.4344054     -1.4508376     -1.4508376     -2.243907e-11  -1.0239448e-11 -7.8764984e-13  42.997543      42.9975        42.9975        79493.215    
       132   0             -29133.001     -1.7786935     -2.4344054     -1.4508376     -1.4508376     -1.4240351e-11 -2.1481359e-13  4.5110854e-12  42.997543      42.9975        42.9975        79493.215    
       133   0             -29133.001     -1.7786935     -2.4344054     -1.4508376     -1.4508376     -1.7748973e-11  9.308589e-13  -1.074068e-12   42.997543      42.9975        42.9975        79493.215    
       134   0             -29133.001     -1.7786935     -2.4344054     -1.4508376     -1.4508376      1.1984808e-11 -3.2651666e-11 -9.0221709e-12  42.997543      42.9975        42.9975        79493.215    
       135   0             -29133.001     -1.7786935     -2.4344054     -1.4508376     -1.4508376     -8.8163079e-13  1.7829528e-11  1.5824601e-11  42.997543      42.9975        42.9975        79493.215    
       136   0             -29133.001     -1.7786935     -2.4344054     -1.4508376     -1.4508376      1.3918131e-11  4.6542945e-13  3.2794875e-11  42.997543      42.9975        42.9975        79493.215    
       137   0             -29133.001     -1.7786935     -2.4344054     -1.4508376     -1.4508376      3.1550746e-12 -1.9941862e-11 -1.374807e-11   42.997543      42.9975        42.9975        79493.215    
       138   0             -29133.001     -1.7786935     -2.4344054     -1.4508376     -1.4508376      2.0129824e-11 -1.8617178e-12 -2.8641812e-13  42.997543      42.9975        42.9975        79493.215    
       139   0             -29133.001     -1.7786935     -2.4344054     -1.4508376     -1.4508376     -1.4875841e-11  4.6542945e-13 -1.9548037e-11  42.997543      42.9975        42.9975        79493.215    
       140   0             -29133.001     -1.7786935     -2.4344054     -1.4508376     -1.4508376     -1.8039867e-11 -1.3927081e-11 -3.3797339e-11  42.997543      42.9975        42.9975        79493.215    
       141   0             -29133.001     -1.7786935     -2.4344054     -1.4508376     -1.4508376      1.374807e-11  -2.5061586e-13  3.2222039e-11  42.997543      42.9975        42.9975        79493.215    
       142   0             -29133.001     -1.7786935     -2.4344054     -1.4508376     -1.4508376      3.9651009e-12  3.9024469e-12  6.5160123e-12  42.997543      42.9975        42.9975        79493.215    
       143   0             -29133.001     -1.7786935     -2.4344054     -1.4508376     -1.4508376      6.4354572e-12 -5.5135489e-12  1.8688783e-11  42.997543      42.9975        42.9975        79493.215    
       144   0             -29133.001     -1.7786935     -2.4344054     -1.4508376     -1.4508376     -9.0669237e-12 -3.3081293e-11 -2.0693709e-11  42.997543      42.9975        42.9975        79493.215    
       145   0             -29133.001     -1.7786935     -2.4344054     -1.4508376     -1.4508376     -4.8422564e-12 -6.6234191e-12 -2.0049269e-12  42.997543      42.9975        42.9975        79493.215    
       146   0             -29133.001     -1.7786935     -2.4344054     -1.4508376     -1.4508376      2.0447569e-11  2.0049269e-11  2.4345541e-11  42.997543      42.9975        42.9975        79493.215    
       147   0             -29133.001     -1.7786935     -2.4344054     -1.4508376     -1.4508376     -2.9894892e-12  2.6135654e-12  2.1481359e-13  42.997543      42.9975        42.9975        79493.215    
       148   0             -29133.001     -1.7786935     -2.4344054     -1.4508376     -1.4508376      1.0561668e-12 -1.1206109e-11  7.8764984e-12  42.997543      42.9975        42.9975        79493.215    
       149   0             -29133.001     -1.7786935     -2.4344054     -1.4508376     -1.4508376      1.3246838e-12 -1.6290031e-11 -2.4345541e-12  42.997543      42.9975        42.9975        79493.215    
       150   0             -29133.001     -1.7786935     -2.4344054     -1.4508376     -1.4508376      4.251519e-13   7.1962554e-12  1.6469042e-11  42.997543      42.9975        42.9975        79493.215    
       151   0             -29133.001     -1.7786935     -2.4344054     -1.4508376     -1.4508376      1.7050829e-11 -4.6900968e-12  9.3801935e-12  42.997543      42.9975        42.9975        79493.215    
       152   0             -29133.001     -1.7786935     -2.4344054     -1.4508376     -1.4508376     -7.2231071e-12  1.0561668e-11 -3.5802265e-12  42.997543      42.9975        42.9975        79493.215    
       153   0             -29133.001     -1.7786935     -2.4344054     -1.4508376     -1.4508376     -8.6014943e-12 -2.5777631e-12 -2.2269009e-11  42.997543      42.9975        42.9975        79493.215    
       154   0             -29133.001     -1.7786935     -2.4344054     -1.4508376     -1.4508376     -3.571276e-12   2.0299885e-11 -3.5802265e-12  42.997543      42.9975        42.9975        79493.215    
       155   0             -29133.001     -1.7786935     -2.4344054     -1.4508376     -1.4508376     -1.816965e-11   9.8814253e-12  6.7308259e-12  42.997543      42.9975        42.9975        79493.215    
       156   0             -29133.001     -1.7786935     -2.4344054     -1.4508376     -1.4508376      3.5623254e-11 -3.508622e-12   3.1505994e-12  42.997543      42.9975        42.9975        79493.215    
       157   0             -29133.001     -1.7786935     -2.4344054     -1.4508376     -1.4508376      1.5242815e-11 -3.7592379e-12 -1.8187551e-11  42.997543      42.9975        42.9975        79493.215    
       158   0             -29133.001     -1.7786935     -2.4344054     -1.4508376     -1.4508376     -5.7194119e-12  9.6308094e-12  1.3604861e-12  42.997543      42.9975        42.9975        79493.215    
       159   0             -29133.001     -1.7786935     -2.4344054     -1.4508376     -1.4508376      4.7169485e-12 -1.0382657e-11  3.7950401e-12  42.997543      42.9975        42.9975        79493.215    
       160   0             -29133.001     -1.7786935     -2.4344054     -1.4508376     -1.4508376      8.6104448e-12  2.6171456e-11  1.5752997e-11  42.997543      42.9975        42.9975        79493.215    
       161   0             -29133.001     -1.7786935     -2.4344054     -1.4508376     -1.4508376     -1.2557645e-11 -1.7614715e-11 -6.7308259e-12  42.997543      42.9975        42.9975        79493.215    
       162   0             -29133.001     -1.7786935     -2.4344054     -1.4508376     -1.4508376      8.6820494e-12  8.4851369e-12  1.596781e-11   42.997543      42.9975        42.9975        79493.215    
       163   0             -29133.001     -1.7786935     -2.4344054     -1.4508376     -1.4508376     -1.2817211e-11  1.0239448e-11 -5.9431761e-12  42.997543      42.9975        42.9975        79493.215    
       164   0             -29133.001     -1.7786935     -2.4344054     -1.4508376     -1.4508376      1.2244375e-11  2.9357858e-12 -3.0073903e-12  42.997543      42.9975        42.9975        79493.215    
       165   0             -29133.001     -1.7786935     -2.4344054     -1.4508376     -1.4508376      6.7218753e-12  7.0530463e-12  2.4989981e-11  42.997543      42.9975        42.9975        79493.215    
       166   0             -29133.001     -1.7786935     -2.4344054     -1.4508376     -1.4508376      6.8919361e-12  3.4728197e-12  1.3676465e-11  42.997543      42.9975        42.9975        79493.215    
       167   0             -29133.001     -1.7786935     -2.4344054     -1.4508376     -1.4508376     -1.279931e-12   7.7690916e-12  9.0221709e-12  42.997543      42.9975        42.9975        79493.215    
       168   0             -29133.001     -1.7786935     -2.4344054     -1.4508376     -1.4508376      1.9691246e-11 -1.185055e-11  -1.2817211e-11  42.997543      42.9975        42.9975        79493.215    
       169   0             -29133.001     -1.7786935     -2.4344054     -1.4508376     -1.4508376     -3.3922647e-11  1.0991295e-11 -1.7399901e-11  42.997543      42.9975        42.9975        79493.215    
       170   0             -29133.001     -1.7786935     -2.4344054     -1.4508376     -1.4508376      2.0586303e-12  3.5336836e-11  1.9476432e-11  42.997543      42.9975        42.9975        79493.215    
       171   0             -29133.001     -1.7786935     -2.4344054     -1.4508376     -1.4508376     -9.5592049e-12  3.7234356e-12  5.3703398e-12  42.997543      42.9975        42.9975        79493.215    
       172   0             -29133.001     -1.7786935     -2.4344054     -1.4508376     -1.4508376      8.5567414e-12  6.0863851e-12  3.1362785e-11  42.997543      42.9975        42.9975        79493.215    
       173   0             -29133.001     -1.7786935     -2.4344054     -1.4508376     -1.4508376      1.233388e-11   1.7793726e-11  4.9407126e-12  42.997543      42.9975        42.9975        79493.215    
       174   0             -29133.001     -1.7786935     -2.4344054     -1.4508376     -1.4508376      1.9337699e-11 -1.532337e-11  -1.6469042e-12  42.997543      42.9975        42.9975        79493.215    
       175   0             -29133.001     -1.7786935     -2.4344054     -1.4508376     -1.4508376      3.4146411e-12 -1.3497454e-11 -3.7234356e-12  42.997543      42.9975        42.9975        79493.215    
       176   0             -29133.001     -1.7786935     -2.4344054     -1.4508376     -1.4508376     -1.1814748e-12 -1.0382657e-11 -2.2197405e-12  42.997543      42.9975        42.9975        79493.215    
       177   0             -29133.001     -1.7786935     -2.4344054     -1.4508376     -1.4508376      4.1351617e-12 -2.3164066e-11  7.6616848e-12  42.997543      42.9975        42.9975        79493.215    
       178   0             -29133.001     -1.7786935     -2.4344054     -1.4508376     -1.4508376      2.4994457e-11  1.6075217e-11 -3.5802265e-13  42.997543      42.9975        42.9975        79493.215    
       179   0             -29133.001     -1.7786935     -2.4344054     -1.4508376     -1.4508376      6.6234191e-12 -1.4678929e-12 -8.1629165e-12  42.997543      42.9975        42.9975        79493.215    
       180   0             -29133.001     -1.7786935     -2.4344054     -1.4508376     -1.4508376     -1.5932008e-12  9.1295777e-12  8.1629165e-12  42.997543      42.9975        42.9975        79493.215    
       181   0             -29133.001     -1.7786935     -2.4344054     -1.4508376     -1.4508376     -1.3783872e-12  3.6912136e-11 -7.3036622e-12  42.997543      42.9975        42.9975        79493.215    
       182   0             -29133.001     -1.7786935     -2.4344054     -1.4508376     -1.4508376      3.8111512e-11 -2.5419608e-11 -1.0597471e-11  42.997543      42.9975        42.9975        79493.215    
       183   0             -29133.001     -1.7786935     -2.4344054     -1.4508376     -1.4508376     -2.5115289e-11 -1.5573985e-11 -7.9481029e-12  42.997543      42.9975        42.9975        79493.215    
       184   0             -29133.001     -1.7786935     -2.4344054     -1.4508376     -1.4508376     -4.5110854e-12 -1.1456725e-11 -4.5110854e-12  42.997543      42.9975        42.9975        79493.215    
       185   0             -29133.001     -1.7786935     -2.4344054     -1.4508376     -1.4508376     -1.4687879e-11 -3.2723271e-11 -6.3728032e-12  42.997543      42.9975        42.9975        79493.215    
       186   0             -29133.001     -1.7786935     -2.4344054     -1.4508376     -1.4508376     -1.2620299e-12 -2.971588e-12  -6.8024304e-12  42.997543      42.9975        42.9975        79493.215    
       187   0             -29133.001     -1.7786935     -2.4344054     -1.4508376     -1.4508376     -3.0521431e-12  1.990606e-11   1.4607324e-11  42.997543      42.9975        42.9975        79493.215    
       188   0             -29133.001     -1.7786935     -2.4344054     -1.4508376     -1.4508376     -6.574191e-12  -1.027525e-11   2.1481359e-12  42.997543      42.9975        42.9975        79493.215    
       189   0             -29133.001     -1.7786935     -2.4344054     -1.4508376     -1.4508376     -6.8471833e-12  5.9431761e-12  1.0597471e-11  42.997543      42.9975        42.9975        79493.215    
       190   0             -29133.001     -1.7786935     -2.4344054     -1.4508376     -1.4508376     -1.0405033e-11 -1.786533e-11  -2.9143044e-11  42.997543      42.9975        42.9975        79493.215    
[...]
       162   0             -29133.001      4.6347497e-06  3.5519791e-06  5.3811866e-06  4.9710833e-06 -1.1605305     -1.1707353e-11  1.4392525e-11  42.9975        42.9975        42.9975        79493.135    
       163   0             -29133.001      4.6347608e-06  3.5519745e-06  5.3811902e-06  4.9711176e-06 -1.1605305      4.6542992e-12  4.0098577e-12  42.9975        42.9975        42.9975        79493.135    
       164   0             -29133.001      4.6347341e-06  3.5519302e-06  5.3811561e-06  4.9711161e-06 -1.1605305      3.0073933e-12  2.0120893e-11  42.9975        42.9975        42.9975        79493.135    
       165   0             -29133.001      4.6347258e-06  3.5519129e-06  5.3811652e-06  4.9710993e-06 -1.1605305     -2.3271496e-12  1.2315992e-11  42.9975        42.9975        42.9975        79493.135    
       166   0             -29133.001      4.6347393e-06  3.5519488e-06  5.3811881e-06  4.9710809e-06 -1.1605305      2.4918402e-11 -1.1313527e-11  42.9975        42.9975        42.9975        79493.135    
       167   0             -29133.001      4.6347509e-06  3.5519421e-06  5.3812004e-06  4.9711102e-06 -1.1605305      1.074069e-12  -1.5753013e-11  42.9975        42.9975        42.9975        79493.135    
       168   0             -29133.001      4.6347565e-06  3.5519717e-06  5.3811896e-06  4.9711081e-06 -1.1605305      6.8024372e-12 -1.7901151e-12  42.9975        42.9975        42.9975        79493.135    
       169   0             -29133.001      4.6347508e-06  3.5519539e-06  5.3811825e-06  4.9711159e-06 -1.1605305      9.3085983e-13  2.4345565e-11  42.9975        42.9975        42.9975        79493.135    
       170   0             -29133.001      4.6347508e-06  3.5519638e-06  5.3811924e-06  4.9710961e-06 -1.1605305     -1.3962897e-11  1.1528341e-11  42.9975        42.9975        42.9975        79493.135    
       171   0             -29133.001      4.6347489e-06  3.5519673e-06  5.3811638e-06  4.9711156e-06 -1.1605305     -2.3271496e-12 -1.432092e-13   42.9975        42.9975        42.9975        79493.135    
       172   0             -29133.001      4.6347582e-06  3.5519726e-06  5.3811876e-06  4.9711143e-06 -1.1605305     -2.6887528e-11 -7.1604602e-12  42.9975        42.9975        42.9975        79493.135    
       173   0             -29133.001      4.6347417e-06  3.5519399e-06  5.3811844e-06  4.9711008e-06 -1.1605305     -8.2345293e-13 -2.5777657e-12  42.9975        42.9975        42.9975        79493.135    
       174   0             -29133.001      4.6347416e-06  3.5519365e-06  5.3812032e-06  4.9710849e-06 -1.1605305     -7.9123086e-12 -1.525178e-11   42.9975        42.9975        42.9975        79493.135    
       175   0             -29133.001      4.6347317e-06  3.551918e-06   5.3811676e-06  4.9711094e-06 -1.1605305      9.8456328e-12 -1.0597481e-11  42.9975        42.9975        42.9975        79493.135    
       176   0             -29133.001      4.6347684e-06  3.5519853e-06  5.3812e-06     4.97112e-06   -1.1605305      4.9049153e-12  1.2387596e-11  42.9975        42.9975        42.9975        79493.135    
       177   0             -29133.001      4.6347332e-06  3.5519511e-06  5.3811596e-06  4.971089e-06  -1.1605305     -6.4086119e-12  3.2938117e-12  42.9975        42.9975        42.9975        79493.135    
       178   0             -29133.001      4.6347406e-06  3.5519296e-06  5.3811801e-06  4.971112e-06  -1.1605305      1.074069e-12  -2.5777657e-11  42.9975        42.9975        42.9975        79493.135    
       179   0             -29133.001      4.634758e-06   3.5519502e-06  5.381218e-06   4.9711059e-06 -1.1605305     -2.395174e-11  -5.6567636e-12  42.9975        42.9975        42.9975        79493.135    
       180   0             -29133.001      4.6347464e-06  3.5519615e-06  5.381204e-06   4.9710735e-06 -1.1605305      4.6184969e-12  1.2172782e-12  42.9975        42.9975        42.9975        79493.135    
       181   0             -29133.001      4.6347332e-06  3.5519345e-06  5.3811475e-06  4.9711177e-06 -1.1605305      2.4309763e-11 -9.3802029e-12  42.9975        42.9975        42.9975        79493.135    
       182   0             -29133.001      4.6347341e-06  3.5519413e-06  5.3811712e-06  4.9710897e-06 -1.1605305      3.3618361e-11  1.0024644e-12  42.9975        42.9975        42.9975        79493.135    
       183   0             -29133.001      4.6347456e-06  3.5519492e-06  5.381167e-06   4.9711207e-06 -1.1605305      3.3260338e-11  2.1481381e-11  42.9975        42.9975        42.9975        79493.135    
       184   0             -29133.001      4.6347379e-06  3.5519561e-06  5.3811669e-06  4.9710906e-06 -1.1605305      2.2483845e-11  1.0454272e-11  42.9975        42.9975        42.9975        79493.135    
       185   0             -29133.001      4.6347329e-06  3.5519205e-06  5.3811714e-06  4.9711067e-06 -1.1605305     -1.4106107e-11  9.7382259e-12  42.9975        42.9975        42.9975        79493.135    
       186   0             -29133.001      4.6347293e-06  3.551926e-06   5.381155e-06   4.9711071e-06 -1.1605305     -1.2709817e-11 -9.3085983e-13  42.9975        42.9975        42.9975        79493.135    
       187   0             -29133.001      4.6347174e-06  3.5519275e-06  5.3811435e-06  4.9710814e-06 -1.1605305      9.0579822e-12  1.7185105e-12  42.9975        42.9975        42.9975        79493.135    
       188   0             -29133.001      4.6347452e-06  3.551956e-06   5.3811662e-06  4.9711134e-06 -1.1605305     -4.9765199e-12 -1.432092e-12   42.9975        42.9975        42.9975        79493.135    
       189   0             -29133.001      4.6347266e-06  3.5519377e-06  5.3811547e-06  4.9710874e-06 -1.1605305     -2.1481381e-12  1.7901151e-12  42.9975        42.9975        42.9975        79493.135    
       190   0             -29133.001      4.6347245e-06  3.5519398e-06  5.3811363e-06  4.9710973e-06 -1.1605305     -2.115916e-11   2.2770264e-11  42.9975        42.9975        42.9975        79493.135    
       191   0             -29133.001      4.6347394e-06  3.5519545e-06  5.3811409e-06  4.9711227e-06 -1.1605305      1.3855491e-11 -2.5491238e-11  42.9975        42.9975        42.9975        79493.135    
       192   0             -29133.001      4.6347368e-06  3.5519433e-06  5.3811762e-06  4.9710907e-06 -1.1605305      7.840704e-12   4.869113e-12   42.9975        42.9975        42.9975        79493.135    
       193   0             -29133.001      4.6347617e-06  3.5519957e-06  5.3811893e-06  4.9711e-06    -1.1605305     -3.0789979e-12 -1.883201e-11   42.9975        42.9975        42.9975        79493.135    
       194   0             -29133.001      4.6347521e-06  3.5519553e-06  5.3811828e-06  4.9711182e-06 -1.1605305      8.6283546e-12 -5.0123222e-13  42.9975        42.9975        42.9975        79493.135    
       195   0             -29133.001      4.6347513e-06  3.551953e-06   5.3812045e-06  4.9710965e-06 -1.1605305      1.2530805e-12 -2.6278889e-11  42.9975        42.9975        42.9975        79493.135    
       196   0             -29133.001      4.6347708e-06  3.5519937e-06  5.3811985e-06  4.9711203e-06 -1.1605305      1.2709817e-11 -2.1767799e-11  42.9975        42.9975        42.9975        79493.135    
       197   0             -29133.001      4.6347939e-06  3.5520036e-06  5.3812105e-06  4.9711674e-06 -1.1605305     -2.3987542e-11 -3.1076397e-11  42.9975        42.9975        42.9975        79493.135    
       198   0             -29133.001      4.6347672e-06  3.5519905e-06  5.3811914e-06  4.9711198e-06 -1.1605305     -1.446413e-11  -1.6683872e-11  42.9975        42.9975        42.9975        79493.135    
       199   0             -29133.001      4.634819e-06   3.5520264e-06  5.381248e-06   4.9711825e-06 -1.1605305      9.4518075e-12 -1.260241e-11   42.9975        42.9975        42.9975        79493.135    
       200   0             -29133.001      4.6348066e-06  3.5519957e-06  5.3812521e-06  4.9711719e-06 -1.1605305     -9.988842e-12  -3.0789979e-11  42.9975        42.9975        42.9975        79493.135    
Loop time of 0.263197 on 8 procs for 100 steps with 6750 atoms

97.5% CPU use with 8 MPI tasks x no OpenMP threads

Minimization stats:
  Stopping criterion = max iterations
  Energy initial, next-to-last, final = 
     -29133.0007101446  -29133.0007142905  -29133.0007142905
  Force two-norm initial, final = 0.011757384 4.3608134e-12
  Force max component initial, final = 0.00024587331 1.4282494e-13
  Final line search alpha, max atom move = 1 1.4282494e-13
  Iterations, force evaluations = 100 200

MPI task timing breakdown:
Section |  min time  |  avg time  |  max time  |%varavg| %total
---------------------------------------------------------------
Pair    | 0.20056    | 0.20412    | 0.21521    |   1.0 | 77.55
Neigh   | 0          | 0          | 0          |   0.0 |  0.00
Comm    | 0.021887   | 0.03006    | 0.038374   |   2.5 | 11.42
Output  | 0.0035324  | 0.0044764  | 0.0091011  |   2.8 |  1.70
Modify  | 0          | 0          | 0          |   0.0 |  0.00
Other   |            | 0.02454    |            |       |  9.32

Nlocal:         843.75 ave         857 max         828 min
Histogram: 1 0 0 1 2 0 1 2 0 1
Nghost:        1818.25 ave        1834 max        1805 min
Histogram: 1 0 2 1 0 2 1 0 0 1
Neighs:        24468.8 ave       24767 max       23943 min
Histogram: 1 0 0 0 0 2 2 1 0 2

Total # of neighbors = 195750
Ave neighs/atom = 29
Neighbor list builds = 0
Dangerous builds = 0

# Obtain new stress tensor

variable tmp equal pe
variable e1 equal ${tmp}
variable e1 equal -29133.0007142905
variable tmp equal press
variable p1 equal ${tmp}
variable p1 equal 4.63480658156183e-06
variable tmp equal pxx
variable pxx1 equal ${tmp}
variable pxx1 equal 3.55199573199629e-06
variable tmp equal pyy
variable pyy1 equal ${tmp}
variable pyy1 equal 5.38125214362099e-06
variable tmp equal pzz
variable pzz1 equal ${tmp}
variable pzz1 equal 4.97117186906821e-06
variable tmp equal pxy
variable pxy1 equal ${tmp}
variable pxy1 equal -1.1605304580107
variable tmp equal pxz
variable pxz1 equal ${tmp}
variable pxz1 equal -9.98884204848824e-12
variable tmp equal pyz
variable pyz1 equal ${tmp}
variable pyz1 equal -3.07899790741931e-11

# Compute elastic constant from pressure tensor

variable C1pos equal ${d1}
variable C1pos equal -0.00035518512876119
variable C2pos equal ${d2}
variable C2pos equal -0.000538111319488984
variable C3pos equal ${d3}
variable C3pos equal -0.000497119506895942
variable C4pos equal ${d4}
variable C4pos equal 3.03603514592044e-09
variable C5pos equal ${d5}
variable C5pos equal 5.05707505142998e-10
variable C6pos equal ${d6}
variable C6pos equal 116.053045800698

# Combine positive and negative

variable C1${dir} equal 0.5*(${C1neg}+${C1pos})
variable C16 equal 0.5*(${C1neg}+${C1pos})
variable C16 equal 0.5*(0.000355186750605437+${C1pos})
variable C16 equal 0.5*(0.000355186750605437+-0.00035518512876119)
variable C2${dir} equal 0.5*(${C2neg}+${C2pos})
variable C26 equal 0.5*(${C2neg}+${C2pos})
variable C26 equal 0.5*(0.000538105927662416+${C2pos})
variable C26 equal 0.5*(0.000538105927662416+-0.000538111319488984)
variable C3${dir} equal 0.5*(${C3neg}+${C3pos})
variable C36 equal 0.5*(${C3neg}+${C3pos})
variable C36 equal 0.5*(0.000497119678746988+${C3pos})
variable C36 equal 0.5*(0.000497119678746988+-0.000497119506895942)
variable C4${dir} equal 0.5*(${C4neg}+${C4pos})
variable C46 equal 0.5*(${C4neg}+${C4pos})
variable C46 equal 0.5*(1.05258765672241e-09+${C4pos})
variable C46 equal 0.5*(1.05258765672241e-09+3.03603514592044e-09)
variable C5${dir} equal 0.5*(${C5neg}+${C5pos})
variable C56 equal 0.5*(${C5neg}+${C5pos})
variable C56 equal 0.5*(1.84650368692037e-09+${C5pos})
variable C56 equal 0.5*(1.84650368692037e-09+5.05707505142998e-10)
variable C6${dir} equal 0.5*(${C6neg}+${C6pos})
variable C66 equal 0.5*(${C6neg}+${C6pos})
variable C66 equal 0.5*(116.053045803065+${C6pos})
variable C66 equal 0.5*(116.053045803065+116.053045800698)

# Delete dir to make sure it is not reused

variable dir delete

# Output final values

variable C11all equal ${C11}
variable C11all equal 243.442064998265
variable C22all equal ${C22}
variable C22all equal 243.442064999474
variable C33all equal ${C33}
variable C33all equal 243.442064998468

variable C12all equal 0.5*(${C12}+${C21})
variable C12all equal 0.5*(145.084472592323+${C21})
variable C12all equal 0.5*(145.084472592323+145.084472589681)
variable C13all equal 0.5*(${C13}+${C31})
variable C13all equal 0.5*(145.084472588314+${C31})
variable C13all equal 0.5*(145.084472588314+145.084472588856)
variable C23all equal 0.5*(${C23}+${C32})
variable C23all equal 0.5*(145.084472588818+${C32})
variable C23all equal 0.5*(145.084472588818+145.084472589605)

variable C44all equal ${C44}
variable C44all equal 116.053045804047
variable C55all equal ${C55}
variable C55all equal 116.053045800617
variable C66all equal ${C66}
variable C66all equal 116.053045801881

variable C14all equal 0.5*(${C14}+${C41})
variable C14all equal 0.5*(3.58918070015191e-10+${C41})
variable C14all equal 0.5*(3.58918070015191e-10+-6.55182388536205e-10)
variable C15all equal 0.5*(${C15}+${C51})
variable C15all equal 0.5*(1.11658427051934e-09+${C51})
variable C15all equal 0.5*(1.11658427051934e-09+-1.84023873173239e-09)
variable C16all equal 0.5*(${C16}+${C61})
variable C16all equal 0.5*(8.10922123477579e-10+${C61})
variable C16all equal 0.5*(8.10922123477579e-10+-7.51849394929743e-10)

variable C24all equal 0.5*(${C24}+${C42})
variable C24all equal 0.5*(9.16538912013e-10+${C42})
variable C24all equal 0.5*(9.16538912013e-10+-7.73330387224232e-10)
variable C25all equal 0.5*(${C25}+${C52})
variable C25all equal 0.5*(3.36541631964626e-10+${C52})
variable C25all equal 0.5*(3.36541631964626e-10+-9.55921049525593e-10)
variable C26all equal 0.5*(${C26}+${C62})
variable C26all equal 0.5*(-2.69591328395328e-09+${C62})
variable C26all equal 0.5*(-2.69591328395328e-09+-1.30253273971717e-09)

variable C34all equal 0.5*(${C34}+${C43})
variable C34all equal 0.5*(-4.04566004015647e-10+${C43})
variable C34all equal 0.5*(-4.04566004015647e-10+-1.46788958950693e-10)
variable C35all equal 0.5*(${C35}+${C53})
variable C35all equal 0.5*(1.27456192448123e-09+${C53})
variable C35all equal 0.5*(1.27456192448123e-09+-1.46789517824616e-09)
variable C36all equal 0.5*(${C36}+${C63})
variable C36all equal 0.5*(8.59255230444174e-11+${C63})
variable C36all equal 0.5*(8.59255230444174e-11+-1.5909656147466e-09)

variable C45all equal 0.5*(${C45}+${C54})
variable C45all equal 0.5*(-1.39628974871341e-09+${C54})
variable C45all equal 0.5*(-1.39628974871341e-09+-7.24996600293503e-10)
variable C46all equal 0.5*(${C46}+${C64})
variable C46all equal 0.5*(2.04431140132143e-09+${C64})
variable C46all equal 0.5*(2.04431140132143e-09+2.67174673071123e-10)
variable C56all equal 0.5*(${C56}+${C65})
variable C56all equal 0.5*(1.17610559603168e-09+${C65})
variable C56all equal 0.5*(1.17610559603168e-09+3.96734250716166e-10)

# Average moduli for cubic crystals

variable C11cubic equal (${C11all}+${C22all}+${C33all})/3.0
variable C11cubic equal (243.442064998265+${C22all}+${C33all})/3.0
variable C11cubic equal (243.442064998265+243.442064999474+${C33all})/3.0
variable C11cubic equal (243.442064998265+243.442064999474+243.442064998468)/3.0
variable C12cubic equal (${C12all}+${C13all}+${C23all})/3.0
variable C12cubic equal (145.084472591002+${C13all}+${C23all})/3.0
variable C12cubic equal (145.084472591002+145.084472588585+${C23all})/3.0
variable C12cubic equal (145.084472591002+145.084472588585+145.084472589211)/3.0
variable C44cubic equal (${C44all}+${C55all}+${C66all})/3.0
variable C44cubic equal (116.053045804047+${C55all}+${C66all})/3.0
variable C44cubic equal (116.053045804047+116.053045800617+${C66all})/3.0
variable C44cubic equal (116.053045804047+116.053045800617+116.053045801881)/3.0

variable bulkmodulus equal (${C11cubic}+2*${C12cubic})/3.0
variable bulkmodulus equal (243.442064998736+2*${C12cubic})/3.0
variable bulkmodulus equal (243.442064998736+2*145.084472589599)/3.0
variable shearmodulus1 equal ${C44cubic}
variable shearmodulus1 equal 116.053045802182
variable shearmodulus2 equal (${C11cubic}-${C12cubic})/2.0
variable shearmodulus2 equal (243.442064998736-${C12cubic})/2.0
variable shearmodulus2 equal (243.442064998736-145.084472589599)/2.0
variable poissonratio equal 1.0/(1.0+${C11cubic}/${C12cubic})
variable poissonratio equal 1.0/(1.0+243.442064998736/${C12cubic})
variable poissonratio equal 1.0/(1.0+243.442064998736/145.084472589599)

# For Stillinger-Weber silicon, the analytical results
# are known to be (E. R. Cowley, 1988):
#               C11 = 151.4 GPa
#               C12 = 76.4 GPa
#               C44 = 56.4 GPa

print "========================================="
=========================================
print "Components of the Elastic Constant Tensor"
Components of the Elastic Constant Tensor
print "========================================="
=========================================

print "Elastic Constant C11all = ${C11all} ${cunits}"
Elastic Constant C11all = 243.442064998265 GPa
print "Elastic Constant C22all = ${C22all} ${cunits}"
Elastic Constant C22all = 243.442064999474 GPa
print "Elastic Constant C33all = ${C33all} ${cunits}"
Elastic Constant C33all = 243.442064998468 GPa

print "Elastic Constant C12all = ${C12all} ${cunits}"
Elastic Constant C12all = 145.084472591002 GPa
print "Elastic Constant C13all = ${C13all} ${cunits}"
Elastic Constant C13all = 145.084472588585 GPa
print "Elastic Constant C23all = ${C23all} ${cunits}"
Elastic Constant C23all = 145.084472589211 GPa

print "Elastic Constant C44all = ${C44all} ${cunits}"
Elastic Constant C44all = 116.053045804047 GPa
print "Elastic Constant C55all = ${C55all} ${cunits}"
Elastic Constant C55all = 116.053045800617 GPa
print "Elastic Constant C66all = ${C66all} ${cunits}"
Elastic Constant C66all = 116.053045801881 GPa

print "Elastic Constant C14all = ${C14all} ${cunits}"
Elastic Constant C14all = -1.48132159260507e-10 GPa
print "Elastic Constant C15all = ${C15all} ${cunits}"
Elastic Constant C15all = -3.61827230606525e-10 GPa
print "Elastic Constant C16all = ${C16all} ${cunits}"
Elastic Constant C16all = 2.9536364273918e-11 GPa

print "Elastic Constant C24all = ${C24all} ${cunits}"
Elastic Constant C24all = 7.1604262394384e-11 GPa
print "Elastic Constant C25all = ${C25all} ${cunits}"
Elastic Constant C25all = -3.09689708780483e-10 GPa
print "Elastic Constant C26all = ${C26all} ${cunits}"
Elastic Constant C26all = -1.99922301183523e-09 GPa

print "Elastic Constant C34all = ${C34all} ${cunits}"
Elastic Constant C34all = -2.7567748148317e-10 GPa
print "Elastic Constant C35all = ${C35all} ${cunits}"
Elastic Constant C35all = -9.66666268824651e-11 GPa
print "Elastic Constant C36all = ${C36all} ${cunits}"
Elastic Constant C36all = -7.52520045851091e-10 GPa

print "Elastic Constant C45all = ${C45all} ${cunits}"
Elastic Constant C45all = -1.06064317450346e-09 GPa
print "Elastic Constant C46all = ${C46all} ${cunits}"
Elastic Constant C46all = 1.15574303719628e-09 GPa
print "Elastic Constant C56all = ${C56all} ${cunits}"
Elastic Constant C56all = 7.86419923373923e-10 GPa

print "========================================="
=========================================
print "Average properties for a cubic crystal"
Average properties for a cubic crystal
print "========================================="
=========================================

print "Bulk Modulus = ${bulkmodulus} ${cunits}"
Bulk Modulus = 177.870336725978 GPa
print "Shear Modulus 1 = ${shearmodulus1} ${cunits}"
Shear Modulus 1 = 116.053045802182 GPa
print "Shear Modulus 2 = ${shearmodulus2} ${cunits}"
Shear Modulus 2 = 49.1787962045685 GPa
print "Poisson Ratio = ${poissonratio}"
Poisson Ratio = 0.373422298230048
Total wall time: 0:00:04
