LAMMPS (2 Aug 2023 - Update 2)
clear
log log.py append
