 # Bcc Fe oriented X=[111], Y=[1-10], Z=[11-2].
  
        3780  atoms
           1  atom types
 
      0.000000000000      34.748403301447  xlo xhi
      0.000000000000      36.478224627852  ylo yhi
      0.000000000000      35.101188014083  zlo zhi
 
Masses
 
            1   55.84500000             # Fe
 
Atoms # atomic
 
         1    1        0.000000000000       2.026568034881       3.510118801408
         2    1        1.654685871497       0.000000000000       4.680158401878
         3    1        0.000000000000       0.000000000000       0.000000000000
         4    1        1.654685871497       2.026568034881       1.170039600469
         5    1        0.827342935749       2.026568034881       5.850198002347
         6    1        0.827342935749       0.000000000000       2.340079200939
         7    1        2.482028807246       2.026568034881       3.510118801408
         8    1        4.136714678744       0.000000000000       4.680158401878
         9    1        2.482028807246       0.000000000000       0.000000000000
        10    1        4.136714678744       2.026568034881       1.170039600469
        11    1        3.309371742995       2.026568034881       5.850198002347
        12    1        3.309371742995       0.000000000000       2.340079200939
        13    1        4.964057614492       2.026568034881       3.510118801408
        14    1        6.618743485990       0.000000000000       4.680158401878
        15    1        4.964057614492       0.000000000000       0.000000000000
        16    1        6.618743485990       2.026568034881       1.170039600469
        17    1        5.791400550241       2.026568034881       5.850198002347
        18    1        5.791400550241       0.000000000000       2.340079200939
        19    1        7.446086421739       2.026568034881       3.510118801408
        20    1        9.100772293236       0.000000000000       4.680158401878
        21    1        7.446086421739       0.000000000000       0.000000000000
        22    1        9.100772293236       2.026568034881       1.170039600469
        23    1        8.273429357487       2.026568034881       5.850198002347
        24    1        8.273429357487       0.000000000000       2.340079200939
        25    1        9.928115228985       2.026568034881       3.510118801408
        26    1       11.582801100482       0.000000000000       4.680158401878
        27    1        9.928115228985       0.000000000000       0.000000000000
        28    1       11.582801100482       2.026568034881       1.170039600469
        29    1       10.755458164734       2.026568034881       5.850198002347
        30    1       10.755458164734       0.000000000000       2.340079200939
        31    1       12.410144036231       2.026568034881       3.510118801408
        32    1       14.064829907728       0.000000000000       4.680158401878
        33    1       12.410144036231       0.000000000000       0.000000000000
        34    1       14.064829907728       2.026568034881       1.170039600469
        35    1       13.237486971980       2.026568034881       5.850198002347
        36    1       13.237486971980       0.000000000000       2.340079200939
        37    1       14.892172843477       2.026568034881       3.510118801408
        38    1       16.546858714975       0.000000000000       4.680158401878
        39    1       14.892172843477       0.000000000000       0.000000000000
        40    1       16.546858714975       2.026568034881       1.170039600469
        41    1       15.719515779226       2.026568034881       5.850198002347
        42    1       15.719515779226       0.000000000000       2.340079200939
        43    1       17.374201650723       2.026568034881       3.510118801408
        44    1       19.028887522221       0.000000000000       4.680158401878
        45    1       17.374201650723       0.000000000000       0.000000000000
        46    1       19.028887522221       2.026568034881       1.170039600469
        47    1       18.201544586472       2.026568034881       5.850198002347
        48    1       18.201544586472       0.000000000000       2.340079200939
        49    1       19.856230457970       2.026568034881       3.510118801408
        50    1       21.510916329467       0.000000000000       4.680158401878
        51    1       19.856230457970       0.000000000000       0.000000000000
        52    1       21.510916329467       2.026568034881       1.170039600469
        53    1       20.683573393718       2.026568034881       5.850198002347
        54    1       20.683573393718       0.000000000000       2.340079200939
        55    1       22.338259265216       2.026568034881       3.510118801408
        56    1       23.992945136713       0.000000000000       4.680158401878
        57    1       22.338259265216       0.000000000000       0.000000000000
        58    1       23.992945136713       2.026568034881       1.170039600469
        59    1       23.165602200965       2.026568034881       5.850198002347
        60    1       23.165602200965       0.000000000000       2.340079200939
        61    1       24.820288072462       2.026568034881       3.510118801408
        62    1       26.474973943959       0.000000000000       4.680158401878
        63    1       24.820288072462       0.000000000000       0.000000000000
        64    1       26.474973943959       2.026568034881       1.170039600469
        65    1       25.647631008211       2.026568034881       5.850198002347
        66    1       25.647631008211       0.000000000000       2.340079200939
        67    1       27.302316879708       2.026568034881       3.510118801408
        68    1       28.957002751206       0.000000000000       4.680158401878
        69    1       27.302316879708       0.000000000000       0.000000000000
        70    1       28.957002751206       2.026568034881       1.170039600469
        71    1       28.129659815457       2.026568034881       5.850198002347
        72    1       28.129659815457       0.000000000000       2.340079200939
        73    1       29.784345686954       2.026568034881       3.510118801408
        74    1       31.439031558452       0.000000000000       4.680158401878
        75    1       29.784345686954       0.000000000000       0.000000000000
        76    1       31.439031558452       2.026568034881       1.170039600469
        77    1       30.611688622703       2.026568034881       5.850198002347
        78    1       30.611688622703       0.000000000000       2.340079200939
        79    1       32.266374494201       2.026568034881       3.510118801408
        80    1       33.921060365698       0.000000000000       4.680158401878
        81    1       32.266374494201       0.000000000000       0.000000000000
        82    1       33.921060365698       2.026568034881       1.170039600469
        83    1       33.093717429949       2.026568034881       5.850198002347
        84    1       33.093717429949       0.000000000000       2.340079200939
        85    1        0.000000000000       6.079704104642       3.510118801408
        86    1        1.654685871497       4.053136069761       4.680158401878
        87    1        0.000000000000       4.053136069761       0.000000000000
        88    1        1.654685871497       6.079704104642       1.170039600469
        89    1        0.827342935749       6.079704104642       5.850198002347
        90    1        0.827342935749       4.053136069761       2.340079200939
        91    1        2.482028807246       6.079704104642       3.510118801408
        92    1        4.136714678744       4.053136069761       4.680158401878
        93    1        2.482028807246       4.053136069761       0.000000000000
        94    1        4.136714678744       6.079704104642       1.170039600469
        95    1        3.309371742995       6.079704104642       5.850198002347
        96    1        3.309371742995       4.053136069761       2.340079200939
        97    1        4.964057614492       6.079704104642       3.510118801408
        98    1        6.618743485990       4.053136069761       4.680158401878
        99    1        4.964057614492       4.053136069761       0.000000000000
       100    1        6.618743485990       6.079704104642       1.170039600469
       101    1        5.791400550241       6.079704104642       5.850198002347
       102    1        5.791400550241       4.053136069761       2.340079200939
       103    1        7.446086421739       6.079704104642       3.510118801408
       104    1        9.100772293236       4.053136069761       4.680158401878
       105    1        7.446086421739       4.053136069761       0.000000000000
       106    1        9.100772293236       6.079704104642       1.170039600469
       107    1        8.273429357487       6.079704104642       5.850198002347
       108    1        8.273429357487       4.053136069761       2.340079200939
       109    1        9.928115228985       6.079704104642       3.510118801408
       110    1       11.582801100482       4.053136069761       4.680158401878
       111    1        9.928115228985       4.053136069761       0.000000000000
       112    1       11.582801100482       6.079704104642       1.170039600469
       113    1       10.755458164734       6.079704104642       5.850198002347
       114    1       10.755458164734       4.053136069761       2.340079200939
       115    1       12.410144036231       6.079704104642       3.510118801408
       116    1       14.064829907728       4.053136069761       4.680158401878
       117    1       12.410144036231       4.053136069761       0.000000000000
       118    1       14.064829907728       6.079704104642       1.170039600469
       119    1       13.237486971980       6.079704104642       5.850198002347
       120    1       13.237486971980       4.053136069761       2.340079200939
       121    1       14.892172843477       6.079704104642       3.510118801408
       122    1       16.546858714975       4.053136069761       4.680158401878
       123    1       14.892172843477       4.053136069761       0.000000000000
       124    1       16.546858714975       6.079704104642       1.170039600469
       125    1       15.719515779226       6.079704104642       5.850198002347
       126    1       15.719515779226       4.053136069761       2.340079200939
       127    1       17.374201650723       6.079704104642       3.510118801408
       128    1       19.028887522221       4.053136069761       4.680158401878
       129    1       17.374201650723       4.053136069761       0.000000000000
       130    1       19.028887522221       6.079704104642       1.170039600469
       131    1       18.201544586472       6.079704104642       5.850198002347
       132    1       18.201544586472       4.053136069761       2.340079200939
       133    1       19.856230457970       6.079704104642       3.510118801408
       134    1       21.510916329467       4.053136069761       4.680158401878
       135    1       19.856230457970       4.053136069761       0.000000000000
       136    1       21.510916329467       6.079704104642       1.170039600469
       137    1       20.683573393718       6.079704104642       5.850198002347
       138    1       20.683573393718       4.053136069761       2.340079200939
       139    1       22.338259265216       6.079704104642       3.510118801408
       140    1       23.992945136713       4.053136069761       4.680158401878
       141    1       22.338259265216       4.053136069761       0.000000000000
       142    1       23.992945136713       6.079704104642       1.170039600469
       143    1       23.165602200965       6.079704104642       5.850198002347
       144    1       23.165602200965       4.053136069761       2.340079200939
       145    1       24.820288072462       6.079704104642       3.510118801408
       146    1       26.474973943959       4.053136069761       4.680158401878
       147    1       24.820288072462       4.053136069761       0.000000000000
       148    1       26.474973943959       6.079704104642       1.170039600469
       149    1       25.647631008211       6.079704104642       5.850198002347
       150    1       25.647631008211       4.053136069761       2.340079200939
       151    1       27.302316879708       6.079704104642       3.510118801408
       152    1       28.957002751206       4.053136069761       4.680158401878
       153    1       27.302316879708       4.053136069761       0.000000000000
       154    1       28.957002751206       6.079704104642       1.170039600469
       155    1       28.129659815457       6.079704104642       5.850198002347
       156    1       28.129659815457       4.053136069761       2.340079200939
       157    1       29.784345686954       6.079704104642       3.510118801408
       158    1       31.439031558452       4.053136069761       4.680158401878
       159    1       29.784345686954       4.053136069761       0.000000000000
       160    1       31.439031558452       6.079704104642       1.170039600469
       161    1       30.611688622703       6.079704104642       5.850198002347
       162    1       30.611688622703       4.053136069761       2.340079200939
       163    1       32.266374494201       6.079704104642       3.510118801408
       164    1       33.921060365698       4.053136069761       4.680158401878
       165    1       32.266374494201       4.053136069761       0.000000000000
       166    1       33.921060365698       6.079704104642       1.170039600469
       167    1       33.093717429949       6.079704104642       5.850198002347
       168    1       33.093717429949       4.053136069761       2.340079200939
       169    1        0.000000000000      10.132840174403       3.510118801408
       170    1        1.654685871497       8.106272139523       4.680158401878
       171    1        0.000000000000       8.106272139523       0.000000000000
       172    1        1.654685871497      10.132840174403       1.170039600469
       173    1        0.827342935749      10.132840174403       5.850198002347
       174    1        0.827342935749       8.106272139523       2.340079200939
       175    1        2.482028807246      10.132840174403       3.510118801408
       176    1        4.136714678744       8.106272139523       4.680158401878
       177    1        2.482028807246       8.106272139523       0.000000000000
       178    1        4.136714678744      10.132840174403       1.170039600469
       179    1        3.309371742995      10.132840174403       5.850198002347
       180    1        3.309371742995       8.106272139523       2.340079200939
       181    1        4.964057614492      10.132840174403       3.510118801408
       182    1        6.618743485990       8.106272139523       4.680158401878
       183    1        4.964057614492       8.106272139523       0.000000000000
       184    1        6.618743485990      10.132840174403       1.170039600469
       185    1        5.791400550241      10.132840174403       5.850198002347
       186    1        5.791400550241       8.106272139523       2.340079200939
       187    1        7.446086421739      10.132840174403       3.510118801408
       188    1        9.100772293236       8.106272139523       4.680158401878
       189    1        7.446086421739       8.106272139523       0.000000000000
       190    1        9.100772293236      10.132840174403       1.170039600469
       191    1        8.273429357487      10.132840174403       5.850198002347
       192    1        8.273429357487       8.106272139523       2.340079200939
       193    1        9.928115228985      10.132840174403       3.510118801408
       194    1       11.582801100482       8.106272139523       4.680158401878
       195    1        9.928115228985       8.106272139523       0.000000000000
       196    1       11.582801100482      10.132840174403       1.170039600469
       197    1       10.755458164734      10.132840174403       5.850198002347
       198    1       10.755458164734       8.106272139523       2.340079200939
       199    1       12.410144036231      10.132840174403       3.510118801408
       200    1       14.064829907728       8.106272139523       4.680158401878
       201    1       12.410144036231       8.106272139523       0.000000000000
       202    1       14.064829907728      10.132840174403       1.170039600469
       203    1       13.237486971980      10.132840174403       5.850198002347
       204    1       13.237486971980       8.106272139523       2.340079200939
       205    1       14.892172843477      10.132840174403       3.510118801408
       206    1       16.546858714975       8.106272139523       4.680158401878
       207    1       14.892172843477       8.106272139523       0.000000000000
       208    1       16.546858714975      10.132840174403       1.170039600469
       209    1       15.719515779226      10.132840174403       5.850198002347
       210    1       15.719515779226       8.106272139523       2.340079200939
       211    1       17.374201650723      10.132840174403       3.510118801408
       212    1       19.028887522221       8.106272139523       4.680158401878
       213    1       17.374201650723       8.106272139523       0.000000000000
       214    1       19.028887522221      10.132840174403       1.170039600469
       215    1       18.201544586472      10.132840174403       5.850198002347
       216    1       18.201544586472       8.106272139523       2.340079200939
       217    1       19.856230457970      10.132840174403       3.510118801408
       218    1       21.510916329467       8.106272139523       4.680158401878
       219    1       19.856230457970       8.106272139523       0.000000000000
       220    1       21.510916329467      10.132840174403       1.170039600469
       221    1       20.683573393718      10.132840174403       5.850198002347
       222    1       20.683573393718       8.106272139523       2.340079200939
       223    1       22.338259265216      10.132840174403       3.510118801408
       224    1       23.992945136713       8.106272139523       4.680158401878
       225    1       22.338259265216       8.106272139523       0.000000000000
       226    1       23.992945136713      10.132840174403       1.170039600469
       227    1       23.165602200965      10.132840174403       5.850198002347
       228    1       23.165602200965       8.106272139523       2.340079200939
       229    1       24.820288072462      10.132840174403       3.510118801408
       230    1       26.474973943959       8.106272139523       4.680158401878
       231    1       24.820288072462       8.106272139523       0.000000000000
       232    1       26.474973943959      10.132840174403       1.170039600469
       233    1       25.647631008211      10.132840174403       5.850198002347
       234    1       25.647631008211       8.106272139523       2.340079200939
       235    1       27.302316879708      10.132840174403       3.510118801408
       236    1       28.957002751206       8.106272139523       4.680158401878
       237    1       27.302316879708       8.106272139523       0.000000000000
       238    1       28.957002751206      10.132840174403       1.170039600469
       239    1       28.129659815457      10.132840174403       5.850198002347
       240    1       28.129659815457       8.106272139523       2.340079200939
       241    1       29.784345686954      10.132840174403       3.510118801408
       242    1       31.439031558452       8.106272139523       4.680158401878
       243    1       29.784345686954       8.106272139523       0.000000000000
       244    1       31.439031558452      10.132840174403       1.170039600469
       245    1       30.611688622703      10.132840174403       5.850198002347
       246    1       30.611688622703       8.106272139523       2.340079200939
       247    1       32.266374494201      10.132840174403       3.510118801408
       248    1       33.921060365698       8.106272139523       4.680158401878
       249    1       32.266374494201       8.106272139523       0.000000000000
       250    1       33.921060365698      10.132840174403       1.170039600469
       251    1       33.093717429949      10.132840174403       5.850198002347
       252    1       33.093717429949       8.106272139523       2.340079200939
       253    1        0.000000000000      14.185976244165       3.510118801408
       254    1        1.654685871497      12.159408209284       4.680158401878
       255    1        0.000000000000      12.159408209284       0.000000000000
       256    1        1.654685871497      14.185976244165       1.170039600469
       257    1        0.827342935749      14.185976244165       5.850198002347
       258    1        0.827342935749      12.159408209284       2.340079200939
       259    1        2.482028807246      14.185976244165       3.510118801408
       260    1        4.136714678744      12.159408209284       4.680158401878
       261    1        2.482028807246      12.159408209284       0.000000000000
       262    1        4.136714678744      14.185976244165       1.170039600469
       263    1        3.309371742995      14.185976244165       5.850198002347
       264    1        3.309371742995      12.159408209284       2.340079200939
       265    1        4.964057614492      14.185976244165       3.510118801408
       266    1        6.618743485990      12.159408209284       4.680158401878
       267    1        4.964057614492      12.159408209284       0.000000000000
       268    1        6.618743485990      14.185976244165       1.170039600469
       269    1        5.791400550241      14.185976244165       5.850198002347
       270    1        5.791400550241      12.159408209284       2.340079200939
       271    1        7.446086421739      14.185976244165       3.510118801408
       272    1        9.100772293236      12.159408209284       4.680158401878
       273    1        7.446086421739      12.159408209284       0.000000000000
       274    1        9.100772293236      14.185976244165       1.170039600469
       275    1        8.273429357487      14.185976244165       5.850198002347
       276    1        8.273429357487      12.159408209284       2.340079200939
       277    1        9.928115228985      14.185976244165       3.510118801408
       278    1       11.582801100482      12.159408209284       4.680158401878
       279    1        9.928115228985      12.159408209284       0.000000000000
       280    1       11.582801100482      14.185976244165       1.170039600469
       281    1       10.755458164734      14.185976244165       5.850198002347
       282    1       10.755458164734      12.159408209284       2.340079200939
       283    1       12.410144036231      14.185976244165       3.510118801408
       284    1       14.064829907728      12.159408209284       4.680158401878
       285    1       12.410144036231      12.159408209284       0.000000000000
       286    1       14.064829907728      14.185976244165       1.170039600469
       287    1       13.237486971980      14.185976244165       5.850198002347
       288    1       13.237486971980      12.159408209284       2.340079200939
       289    1       14.892172843477      14.185976244165       3.510118801408
       290    1       16.546858714975      12.159408209284       4.680158401878
       291    1       14.892172843477      12.159408209284       0.000000000000
       292    1       16.546858714975      14.185976244165       1.170039600469
       293    1       15.719515779226      14.185976244165       5.850198002347
       294    1       15.719515779226      12.159408209284       2.340079200939
       295    1       17.374201650723      14.185976244165       3.510118801408
       296    1       19.028887522221      12.159408209284       4.680158401878
       297    1       17.374201650723      12.159408209284       0.000000000000
       298    1       19.028887522221      14.185976244165       1.170039600469
       299    1       18.201544586472      14.185976244165       5.850198002347
       300    1       18.201544586472      12.159408209284       2.340079200939
       301    1       19.856230457970      14.185976244165       3.510118801408
       302    1       21.510916329467      12.159408209284       4.680158401878
       303    1       19.856230457970      12.159408209284       0.000000000000
       304    1       21.510916329467      14.185976244165       1.170039600469
       305    1       20.683573393718      14.185976244165       5.850198002347
       306    1       20.683573393718      12.159408209284       2.340079200939
       307    1       22.338259265216      14.185976244165       3.510118801408
       308    1       23.992945136713      12.159408209284       4.680158401878
       309    1       22.338259265216      12.159408209284       0.000000000000
       310    1       23.992945136713      14.185976244165       1.170039600469
       311    1       23.165602200965      14.185976244165       5.850198002347
       312    1       23.165602200965      12.159408209284       2.340079200939
       313    1       24.820288072462      14.185976244165       3.510118801408
       314    1       26.474973943959      12.159408209284       4.680158401878
       315    1       24.820288072462      12.159408209284       0.000000000000
       316    1       26.474973943959      14.185976244165       1.170039600469
       317    1       25.647631008211      14.185976244165       5.850198002347
       318    1       25.647631008211      12.159408209284       2.340079200939
       319    1       27.302316879708      14.185976244165       3.510118801408
       320    1       28.957002751206      12.159408209284       4.680158401878
       321    1       27.302316879708      12.159408209284       0.000000000000
       322    1       28.957002751206      14.185976244165       1.170039600469
       323    1       28.129659815457      14.185976244165       5.850198002347
       324    1       28.129659815457      12.159408209284       2.340079200939
       325    1       29.784345686954      14.185976244165       3.510118801408
       326    1       31.439031558452      12.159408209284       4.680158401878
       327    1       29.784345686954      12.159408209284       0.000000000000
       328    1       31.439031558452      14.185976244165       1.170039600469
       329    1       30.611688622703      14.185976244165       5.850198002347
       330    1       30.611688622703      12.159408209284       2.340079200939
       331    1       32.266374494201      14.185976244165       3.510118801408
       332    1       33.921060365698      12.159408209284       4.680158401878
       333    1       32.266374494201      12.159408209284       0.000000000000
       334    1       33.921060365698      14.185976244165       1.170039600469
       335    1       33.093717429949      14.185976244165       5.850198002347
       336    1       33.093717429949      12.159408209284       2.340079200939
       337    1        0.000000000000      18.239112313926       3.510118801408
       338    1        1.654685871497      16.212544279045       4.680158401878
       339    1        0.000000000000      16.212544279045       0.000000000000
       340    1        1.654685871497      18.239112313926       1.170039600469
       341    1        0.827342935749      18.239112313926       5.850198002347
       342    1        0.827342935749      16.212544279045       2.340079200939
       343    1        2.482028807246      18.239112313926       3.510118801408
       344    1        4.136714678744      16.212544279045       4.680158401878
       345    1        2.482028807246      16.212544279045       0.000000000000
       346    1        4.136714678744      18.239112313926       1.170039600469
       347    1        3.309371742995      18.239112313926       5.850198002347
       348    1        3.309371742995      16.212544279045       2.340079200939
       349    1        4.964057614492      18.239112313926       3.510118801408
       350    1        6.618743485990      16.212544279045       4.680158401878
       351    1        4.964057614492      16.212544279045       0.000000000000
       352    1        6.618743485990      18.239112313926       1.170039600469
       353    1        5.791400550241      18.239112313926       5.850198002347
       354    1        5.791400550241      16.212544279045       2.340079200939
       355    1        7.446086421739      18.239112313926       3.510118801408
       356    1        9.100772293236      16.212544279045       4.680158401878
       357    1        7.446086421739      16.212544279045       0.000000000000
       358    1        9.100772293236      18.239112313926       1.170039600469
       359    1        8.273429357487      18.239112313926       5.850198002347
       360    1        8.273429357487      16.212544279045       2.340079200939
       361    1        9.928115228985      18.239112313926       3.510118801408
       362    1       11.582801100482      16.212544279045       4.680158401878
       363    1        9.928115228985      16.212544279045       0.000000000000
       364    1       11.582801100482      18.239112313926       1.170039600469
       365    1       10.755458164734      18.239112313926       5.850198002347
       366    1       10.755458164734      16.212544279045       2.340079200939
       367    1       12.410144036231      18.239112313926       3.510118801408
       368    1       14.064829907728      16.212544279045       4.680158401878
       369    1       12.410144036231      16.212544279045       0.000000000000
       370    1       14.064829907728      18.239112313926       1.170039600469