LAMMPS (2 Aug 2023 - Update 2)
# ===== Stack Fault Energy Calculation for BCC Fe =====

clear
units           metal
dimension       3
boundary        p p p
atom_style      atomic

# ===== Structure and Orientation =====
variable        latparam1 equal 2.86
read_data       data.bcc_110.lmp   # Created with Atomsk with orientation [111] [1-10] [11-2]
Reading data file ...
  orthogonal box = (0 0 0) to (34.748403 36.478225 35.101188)
  2 by 2 by 2 MPI processor grid
  reading atoms ...
  3780 atoms
  read_data CPU = 0.019 seconds

# ===== Interatomic Potential =====
pair_style      eam/alloy
pair_coeff      * * Fe_Ack.eam Fe

# ===== Group and Region Definitions (based on z:  [11-2] axis) =====
region          bot block INF INF INF INF INF 18 units lattice
region          top block INF INF INF INF 18.3 INF units lattice
region          mobile block INF INF INF INF 2 32  units lattice

group           bot region bot
2016 atoms in group bot
group           top region top
1764 atoms in group top
group           mobile region mobile
3276 atoms in group mobile

# ===== Pre-Minimization Box Relaxation =====
thermo          100
fix             1 all box/relax aniso 0.0 vmax 0.001
min_style       cg
minimize        1e-20 1e-20 10000 50000
Neighbor list info ...
  update: every = 1 steps, delay = 0 steps, check = yes
  max neighbors/atom: 2000, page size: 100000
  master list distance cutoff = 6.156425
  ghost atom cutoff = 6.156425
  binsize = 3.0782125, bins = 12 12 12
  1 neighbor lists, perpetual/occasional/extra = 1 0 0
  (1) pair eam/alloy, perpetual
      attributes: half, newton on
      pair build: half/bin/atomonly/newton
      stencil: half/bin/3d
      bin: standard
WARNING: Energy due to 3 extra global DOFs will be included in minimizer energies
 (../min.cpp:228)
Per MPI rank memory allocation (min/avg/max) = 4.494 | 4.499 | 4.504 Mbytes
   Step          Temp          E_pair         E_mol          TotEng         Press          Volume    
         0   0             -16314.474      0             -16314.474      934.46288      44492.864    
        43   0             -16314.48       0             -16314.48      -4.4004864e-10  44516.156    
Loop time of 0.111017 on 8 procs for 43 steps with 3780 atoms

93.7% CPU use with 8 MPI tasks x no OpenMP threads

Minimization stats:
  Stopping criterion = energy tolerance
  Energy initial, next-to-last, final = 
     -16314.4736182958  -16314.4804000198  -16314.4804000198
  Force two-norm initial, final = 44.947205 1.0276939e-10
  Force max component initial, final = 25.950281 9.1772787e-11
  Final line search alpha, max atom move = 1 9.1772787e-11
  Iterations, force evaluations = 43 86

MPI task timing breakdown:
Section |  min time  |  avg time  |  max time  |%varavg| %total
---------------------------------------------------------------
Pair    | 0.066091   | 0.069078   | 0.076238   |   1.1 | 62.22
Neigh   | 0          | 0          | 0          |   0.0 |  0.00
Comm    | 0.022249   | 0.028215   | 0.032108   |   1.8 | 25.41
Output  | 0          | 0          | 0          |   0.0 |  0.00
Modify  | 0          | 0          | 0          |   0.0 |  0.00
Other   |            | 0.01372    |            |       | 12.36

Nlocal:          472.5 ave         531 max         423 min
Histogram: 2 0 0 2 0 2 0 0 0 2
Nghost:         2023.5 ave        2073 max        1965 min
Histogram: 2 0 0 0 0 2 2 0 0 2
Neighs:          15120 ave       16608 max       13687 min
Histogram: 2 0 0 0 2 2 0 0 0 2

Total # of neighbors = 120960
Ave neighs/atom = 32
Neighbor list builds = 0
Dangerous builds = 0
unfix           1

# ===== Compute Settings =====
compute         peratom all pe/atom
compute         eatoms all reduce sum c_peratom
compute         csym all centro/atom bcc

thermo          10
thermo_style    custom step pe c_eatoms
run             0
WARNING: No fixes with time integration, atoms won't move (../verlet.cpp:60)
Neighbor list info ...
  update: every = 1 steps, delay = 0 steps, check = yes
  max neighbors/atom: 2000, page size: 100000
  master list distance cutoff = 6.156425
  ghost atom cutoff = 6.156425
  binsize = 3.0782125, bins = 12 12 12
  2 neighbor lists, perpetual/occasional/extra = 1 1 0
  (1) pair eam/alloy, perpetual
      attributes: half, newton on
      pair build: half/bin/atomonly/newton
      stencil: half/bin/3d
      bin: standard
  (2) compute centro/atom, occasional
      attributes: full, newton on
      pair build: full/bin/atomonly
      stencil: full/bin/3d
      bin: standard
Per MPI rank memory allocation (min/avg/max) = 4.125 | 4.139 | 4.152 Mbytes
   Step         PotEng        c_eatoms   
        43  -16314.48      -16314.48     
Loop time of 2.2811e-05 on 8 procs for 0 steps with 3780 atoms

101.9% CPU use with 8 MPI tasks x no OpenMP threads

MPI task timing breakdown:
Section |  min time  |  avg time  |  max time  |%varavg| %total
---------------------------------------------------------------
Pair    | 0          | 0          | 0          |   0.0 |  0.00
Neigh   | 0          | 0          | 0          |   0.0 |  0.00
Comm    | 0          | 0          | 0          |   0.0 |  0.00
Output  | 0          | 0          | 0          |   0.0 |  0.00
Modify  | 0          | 0          | 0          |   0.0 |  0.00
Other   |            | 2.281e-05  |            |       |100.00

Nlocal:          472.5 ave         476 max         469 min
Histogram: 4 0 0 0 0 0 0 0 0 4
Nghost:         2023.5 ave        2027 max        2020 min
Histogram: 4 0 0 0 0 0 0 0 0 4
Neighs:          15120 ave       15508 max       14776 min
Histogram: 2 0 2 0 0 0 1 1 0 2
FullNghs:            0 ave           0 max           0 min
Histogram: 8 0 0 0 0 0 0 0 0 0

Total # of neighbors = 120960
Ave neighs/atom = 32
Neighbor list builds = 0
Dangerous builds = 0

# ===== Initial Energy and Geometry Variables =====
variable        E equal c_eatoms
variable        Eo equal $E
variable        Eo equal -16314.4804000186

variable        LenX equal lx
variable        LenY equal ly
variable        LenZ equal lz
variable        Area equal "v_LenX * v_LenY"
variable        Conv equal 16021.77   # eV/Å² to mJ/m²

# ===== Deformation Loop =====

# Header for output file
variable header string "#displacement, SFE_mJ_per_m2"
print "${header}" file Result.txt screen no


variable        nloop equal 58
variable        a loop ${nloop}
variable        a loop 58
label           loop

reset_timestep  0

# Displace along x-direction ([111]), fault normal is z ([11-2])
variable        x_displace equal "-0.0005 * v_a * (v_latparam1)"
displace_atoms  top move ${x_displace} 0.0 0.0 units box
displace_atoms  top move -0.00143 0.0 0.0 units box
Displacing atoms ...

# Constrain motion along x and y to simulate shear
fix             1 all setforce 0.0 0.0 NULL

# Relax atomic positions (box is fixed)
min_style       cg
#minimize 1e-10 1e-10 1 1
minimize        1e-25 1e-25 10000 50000
Per MPI rank memory allocation (min/avg/max) = 5.375 | 5.389 | 5.402 Mbytes
   Step         PotEng        c_eatoms   
         0  -16314.48      -16314.48     
        10  -16314.48      -16314.48     
        20  -16314.48      -16314.48     
        30  -16314.48      -16314.48     
        34  -16314.48      -16314.48     
Loop time of 0.0853855 on 8 procs for 34 steps with 3780 atoms

93.4% CPU use with 8 MPI tasks x no OpenMP threads

Minimization stats:
  Stopping criterion = energy tolerance
  Energy initial, next-to-last, final = 
     -16314.4797525565  -16314.4797747497  -16314.4797747497
  Force two-norm initial, final = 0.018555739 8.0523623e-13
  Force max component initial, final = 0.00083270313 6.7362782e-14
  Final line search alpha, max atom move = 1 6.7362782e-14
  Iterations, force evaluations = 34 68

MPI task timing breakdown:
Section |  min time  |  avg time  |  max time  |%varavg| %total
---------------------------------------------------------------
Pair    | 0.058391   | 0.061092   | 0.074028   |   2.0 | 71.55
Neigh   | 0          | 0          | 0          |   0.0 |  0.00
Comm    | 0.0085192  | 0.02027    | 0.022853   |   3.1 | 23.74
Output  | 0.00012237 | 0.00015504 | 0.00038203 |   0.0 |  0.18
Modify  | 0.00016167 | 0.00017333 | 0.00021558 |   0.0 |  0.20
Other   |            | 0.003696   |            |       |  4.33

Nlocal:          472.5 ave         476 max         469 min
Histogram: 4 0 0 0 0 0 0 0 0 4
Nghost:         2023.5 ave        2027 max        2020 min
Histogram: 4 0 0 0 0 0 0 0 0 4
Neighs:          15120 ave       15508 max       14776 min
Histogram: 2 0 2 0 0 0 1 1 0 2
FullNghs:            0 ave           0 max           0 min
Histogram: 8 0 0 0 0 0 0 0 0 0

Total # of neighbors = 120960
Ave neighs/atom = 32
Neighbor list builds = 0
Dangerous builds = 0
run             0
WARNING: No fixes with time integration, atoms won't move (../verlet.cpp:60)
Per MPI rank memory allocation (min/avg/max) = 4.25 | 4.264 | 4.277 Mbytes
   Step         PotEng        c_eatoms   
        34  -16314.48      -16314.48     
Loop time of 2.45462e-06 on 8 procs for 0 steps with 3780 atoms

117.1% CPU use with 8 MPI tasks x no OpenMP threads

MPI task timing breakdown:
Section |  min time  |  avg time  |  max time  |%varavg| %total
---------------------------------------------------------------
Pair    | 0          | 0          | 0          |   0.0 |  0.00
Neigh   | 0          | 0          | 0          |   0.0 |  0.00
Comm    | 0          | 0          | 0          |   0.0 |  0.00
Output  | 0          | 0          | 0          |   0.0 |  0.00
Modify  | 0          | 0          | 0          |   0.0 |  0.00
Other   |            | 2.455e-06  |            |       |100.00

Nlocal:          472.5 ave         476 max         469 min
Histogram: 4 0 0 0 0 0 0 0 0 4
Nghost:         2023.5 ave        2027 max        2020 min
Histogram: 4 0 0 0 0 0 0 0 0 4
Neighs:          15120 ave       15516 max       14758 min
Histogram: 2 0 1 1 0 1 1 0 0 2
FullNghs:            0 ave           0 max           0 min
Histogram: 8 0 0 0 0 0 0 0 0 0

Total # of neighbors = 120960
Ave neighs/atom = 32
Neighbor list builds = 0
Dangerous builds = 0
#run             1

#unfix           1

# ===== SFE Calculation =====
variable        Ef equal c_eatoms
variable        Cf equal 1.60217657e-16    # eV to mJ
variable        A equal ${Area}*1e-20
variable        A equal 1268.00239775789*1e-20
variable        SFE equal (((${Ef}-${Eo})*${Cf})/${A})/2
variable        SFE equal (((-16314.4797747494-${Eo})*${Cf})/${A})/2
variable        SFE equal (((-16314.4797747494--16314.4804000186)*${Cf})/${A})/2
variable        SFE equal (((-16314.4797747494--16314.4804000186)*1.60217657e-16)/${A})/2
variable        SFE equal (((-16314.4797747494--16314.4804000186)*1.60217657e-16)/1.26800239775789e-17)/2

print "${x_displace}, ${SFE}" append Result.txt screen no


# ===== Output =====
dump            1 all custom 1 dump.${a} id type x y z
dump            1 all custom 1 dump.1 id type x y z
run             1
WARNING: No fixes with time integration, atoms won't move (../verlet.cpp:60)
Per MPI rank memory allocation (min/avg/max) = 4.25 | 4.264 | 4.277 Mbytes
   Step         PotEng        c_eatoms   
        34  -16314.48      -16314.48     
        35  -16314.48      -16314.48     
Loop time of 0.00230961 on 8 procs for 1 steps with 3780 atoms

Performance: 37.409 ns/day, 0.642 hours/ns, 432.974 timesteps/s, 1.637 Matom-step/s
96.3% CPU use with 8 MPI tasks x no OpenMP threads

MPI task timing breakdown:
Section |  min time  |  avg time  |  max time  |%varavg| %total
---------------------------------------------------------------
Pair    | 0.00061526 | 0.00062605 | 0.0006392  |   0.0 | 27.11
Neigh   | 0          | 0          | 0          |   0.0 |  0.00
Comm    | 7.1698e-05 | 8.5853e-05 | 9.785e-05  |   0.0 |  3.72
Output  | 0.0013954  | 0.0014774  | 0.0015687  |   0.1 | 63.97
Modify  | 2.931e-06  | 3.5978e-06 | 4.256e-06  |   0.0 |  0.16
Other   |            | 0.0001167  |            |       |  5.05

Nlocal:          472.5 ave         476 max         469 min
Histogram: 4 0 0 0 0 0 0 0 0 4
Nghost:         2023.5 ave        2027 max        2020 min
Histogram: 4 0 0 0 0 0 0 0 0 4
Neighs:          15120 ave       15516 max       14758 min
Histogram: 2 0 1 1 0 1 1 0 0 2
FullNghs:            0 ave           0 max           0 min
Histogram: 8 0 0 0 0 0 0 0 0 0

Total # of neighbors = 120960
Ave neighs/atom = 32
Neighbor list builds = 0
Dangerous builds = 0
undump 1

next            a
jump            in.SFE_Fe_BCC loop

reset_timestep  0

# Displace along x-direction ([111]), fault normal is z ([11-2])
variable        x_displace equal "-0.0005 * v_a * (v_latparam1)"
displace_atoms  top move ${x_displace} 0.0 0.0 units box
displace_atoms  top move -0.00286 0.0 0.0 units box
Displacing atoms ...

# Constrain motion along x and y to simulate shear
fix             1 all setforce 0.0 0.0 NULL

# Relax atomic positions (box is fixed)
min_style       cg
#minimize 1e-10 1e-10 1 1
minimize        1e-25 1e-25 10000 50000
Per MPI rank memory allocation (min/avg/max) = 5.375 | 5.389 | 5.402 Mbytes
   Step         PotEng        c_eatoms   
         0  -16314.475     -16314.475    
        10  -16314.475     -16314.475    
        20  -16314.475     -16314.475    
        30  -16314.475     -16314.475    
        37  -16314.475     -16314.475    
Loop time of 0.0944807 on 8 procs for 37 steps with 3780 atoms

92.3% CPU use with 8 MPI tasks x no OpenMP threads

Minimization stats:
  Stopping criterion = energy tolerance
  Energy initial, next-to-last, final = 
     -16314.4746767065  -16314.4747669531  -16314.4747669531
  Force two-norm initial, final = 0.03749782 6.8769862e-13
  Force max component initial, final = 0.0017145111 5.941081e-14
  Final line search alpha, max atom move = 1 5.941081e-14
  Iterations, force evaluations = 37 74

MPI task timing breakdown:
Section |  min time  |  avg time  |  max time  |%varavg| %total
---------------------------------------------------------------
Pair    | 0.060936   | 0.064798   | 0.07213    |   1.4 | 68.58
Neigh   | 0          | 0          | 0          |   0.0 |  0.00
Comm    | 0.018663   | 0.025038   | 0.028374   |   2.2 | 26.50
Output  | 0.00010947 | 0.00013074 | 0.00027864 |   0.0 |  0.14
Modify  | 0.00018075 | 0.00019167 | 0.00023236 |   0.0 |  0.20
Other   |            | 0.004322   |            |       |  4.57

Nlocal:          472.5 ave         476 max         469 min
Histogram: 4 0 0 0 0 0 0 0 0 4
Nghost:         2023.5 ave        2027 max        2020 min
Histogram: 4 0 0 0 0 0 0 0 0 4
Neighs:          15120 ave       15516 max       14758 min
Histogram: 2 0 1 1 0 1 1 0 0 2
FullNghs:            0 ave           0 max           0 min
Histogram: 8 0 0 0 0 0 0 0 0 0

Total # of neighbors = 120960
Ave neighs/atom = 32
Neighbor list builds = 0
Dangerous builds = 0
run             0
WARNING: No fixes with time integration, atoms won't move (../verlet.cpp:60)
Per MPI rank memory allocation (min/avg/max) = 4.25 | 4.264 | 4.277 Mbytes
   Step         PotEng        c_eatoms   
        37  -16314.475     -16314.475    
Loop time of 2.12625e-06 on 8 procs for 0 steps with 3780 atoms

123.5% CPU use with 8 MPI tasks x no OpenMP threads

MPI task timing breakdown:
Section |  min time  |  avg time  |  max time  |%varavg| %total
---------------------------------------------------------------
Pair    | 0          | 0          | 0          |   0.0 |  0.00
Neigh   | 0          | 0          | 0          |   0.0 |  0.00
Comm    | 0          | 0          | 0          |   0.0 |  0.00
Output  | 0          | 0          | 0          |   0.0 |  0.00
Modify  | 0          | 0          | 0          |   0.0 |  0.00
Other   |            | 2.126e-06  |            |       |100.00

Nlocal:          472.5 ave         476 max         469 min
Histogram: 4 0 0 0 0 0 0 0 0 4
Nghost:         2023.5 ave        2027 max        2020 min
Histogram: 4 0 0 0 0 0 0 0 0 4
Neighs:          15120 ave       15516 max       14758 min
Histogram: 2 0 1 1 0 1 1 0 0 2
FullNghs:            0 ave           0 max           0 min
Histogram: 8 0 0 0 0 0 0 0 0 0

Total # of neighbors = 120960
Ave neighs/atom = 32
Neighbor list builds = 0
Dangerous builds = 0
#run             1

#unfix           1

# ===== SFE Calculation =====
variable        Ef equal c_eatoms
variable        Cf equal 1.60217657e-16    # eV to mJ
variable        A equal ${Area}*1e-20
variable        A equal 1268.00239775789*1e-20
variable        SFE equal (((${Ef}-${Eo})*${Cf})/${A})/2
variable        SFE equal (((-16314.4747669528-${Eo})*${Cf})/${A})/2
variable        SFE equal (((-16314.4747669528--16314.4804000186)*${Cf})/${A})/2
variable        SFE equal (((-16314.4747669528--16314.4804000186)*1.60217657e-16)/${A})/2
variable        SFE equal (((-16314.4747669528--16314.4804000186)*1.60217657e-16)/1.26800239775789e-17)/2

print "${x_displace}, ${SFE}" append Result.txt screen no


# ===== Output =====
dump            1 all custom 1 dump.${a} id type x y z
dump            1 all custom 1 dump.2 id type x y z
run             1
WARNING: No fixes with time integration, atoms won't move (../verlet.cpp:60)
Per MPI rank memory allocation (min/avg/max) = 4.25 | 4.264 | 4.277 Mbytes
   Step         PotEng        c_eatoms   
        37  -16314.475     -16314.475    
        38  -16314.475     -16314.475    
Loop time of 0.00224442 on 8 procs for 1 steps with 3780 atoms

Performance: 38.496 ns/day, 0.623 hours/ns, 445.550 timesteps/s, 1.684 Matom-step/s
95.8% CPU use with 8 MPI tasks x no OpenMP threads

MPI task timing breakdown:
Section |  min time  |  avg time  |  max time  |%varavg| %total
---------------------------------------------------------------
Pair    | 0.00059942 | 0.00061103 | 0.00062897 |   0.0 | 27.22
Neigh   | 0          | 0          | 0          |   0.0 |  0.00
Comm    | 5.7484e-05 | 7.5324e-05 | 8.6652e-05 |   0.0 |  3.36
Output  | 0.0013549  | 0.0014407  | 0.0015383  |   0.2 | 64.19
Modify  | 2.338e-06  | 2.6515e-06 | 3.053e-06  |   0.0 |  0.12
Other   |            | 0.0001148  |            |       |  5.11

Nlocal:          472.5 ave         476 max         469 min
Histogram: 4 0 0 0 0 0 0 0 0 4
Nghost:         2023.5 ave        2027 max        2020 min
Histogram: 4 0 0 0 0 0 0 0 0 4
Neighs:          15120 ave       15516 max       14758 min
Histogram: 2 0 1 1 0 1 1 0 0 2
FullNghs:            0 ave           0 max           0 min
Histogram: 8 0 0 0 0 0 0 0 0 0

Total # of neighbors = 120960
Ave neighs/atom = 32
Neighbor list builds = 0
Dangerous builds = 0
undump 1

next            a
jump            in.SFE_Fe_BCC loop

reset_timestep  0

# Displace along x-direction ([111]), fault normal is z ([11-2])
variable        x_displace equal "-0.0005 * v_a * (v_latparam1)"
displace_atoms  top move ${x_displace} 0.0 0.0 units box
displace_atoms  top move -0.00429 0.0 0.0 units box
Displacing atoms ...

# Constrain motion along x and y to simulate shear
fix             1 all setforce 0.0 0.0 NULL

# Relax atomic positions (box is fixed)
min_style       cg
#minimize 1e-10 1e-10 1 1
minimize        1e-25 1e-25 10000 50000
Per MPI rank memory allocation (min/avg/max) = 5.375 | 5.389 | 5.402 Mbytes
   Step         PotEng        c_eatoms   
         0  -16314.458     -16314.458    
        10  -16314.458     -16314.458    
        20  -16314.458     -16314.458    
        30  -16314.458     -16314.458    
        35  -16314.458     -16314.458    
Loop time of 0.0910139 on 8 procs for 35 steps with 3780 atoms

91.8% CPU use with 8 MPI tasks x no OpenMP threads

Minimization stats:
  Stopping criterion = energy tolerance
  Energy initial, next-to-last, final = 
      -16314.457626282  -16314.4578356395  -16314.4578356395
  Force two-norm initial, final = 0.057438322 7.3040764e-13
  Force max component initial, final = 0.0026885187 6.003531e-14
  Final line search alpha, max atom move = 1 6.003531e-14
  Iterations, force evaluations = 35 70

MPI task timing breakdown:
Section |  min time  |  avg time  |  max time  |%varavg| %total
---------------------------------------------------------------
Pair    | 0.054827   | 0.05647    | 0.058169   |   0.5 | 62.05
Neigh   | 0          | 0          | 0          |   0.0 |  0.00
Comm    | 0.025678   | 0.027998   | 0.030828   |   1.1 | 30.76
Output  | 0.00011008 | 0.0001331  | 0.00029233 |   0.0 |  0.15
Modify  | 0.00017118 | 0.00017669 | 0.00018141 |   0.0 |  0.19
Other   |            | 0.006236   |            |       |  6.85

Nlocal:          472.5 ave         476 max         469 min
Histogram: 4 0 0 0 0 0 0 0 0 4
Nghost:         2023.5 ave        2027 max        2020 min
Histogram: 4 0 0 0 0 0 0 0 0 4
Neighs:          15120 ave       15516 max       14758 min
Histogram: 2 0 1 1 0 1 1 0 0 2
FullNghs:            0 ave           0 max           0 min
Histogram: 8 0 0 0 0 0 0 0 0 0

Total # of neighbors = 120960
Ave neighs/atom = 32
Neighbor list builds = 0
Dangerous builds = 0
run             0
WARNING: No fixes with time integration, atoms won't move (../verlet.cpp:60)
Per MPI rank memory allocation (min/avg/max) = 4.25 | 4.264 | 4.277 Mbytes
   Step         PotEng        c_eatoms   
        35  -16314.458     -16314.458    
Loop time of 9.52412e-06 on 8 procs for 0 steps with 3780 atoms

107.6% CPU use with 8 MPI tasks x no OpenMP threads

MPI task timing breakdown:
Section |  min time  |  avg time  |  max time  |%varavg| %total
---------------------------------------------------------------
Pair    | 0          | 0          | 0          |   0.0 |  0.00
Neigh   | 0          | 0          | 0          |   0.0 |  0.00
Comm    | 0          | 0          | 0          |   0.0 |  0.00
Output  | 0          | 0          | 0          |   0.0 |  0.00
Modify  | 0          | 0          | 0          |   0.0 |  0.00
Other   |            | 9.524e-06  |            |       |100.00

Nlocal:          472.5 ave         476 max         469 min
Histogram: 4 0 0 0 0 0 0 0 0 4
Nghost:         2023.5 ave        2027 max        2020 min
Histogram: 4 0 0 0 0 0 0 0 0 4
Neighs:          15120 ave       15516 max       14758 min
Histogram: 2 0 1 1 0 1 1 0 0 2
FullNghs:            0 ave           0 max           0 min
Histogram: 8 0 0 0 0 0 0 0 0 0

Total # of neighbors = 120960
Ave neighs/atom = 32
Neighbor list builds = 0
Dangerous builds = 0
#run             1

#unfix           1

# ===== SFE Calculation =====
variable        Ef equal c_eatoms
variable        Cf equal 1.60217657e-16    # eV to mJ
variable        A equal ${Area}*1e-20
variable        A equal 1268.00239775789*1e-20
variable        SFE equal (((${Ef}-${Eo})*${Cf})/${A})/2
variable        SFE equal (((-16314.4578356393-${Eo})*${Cf})/${A})/2
variable        SFE equal (((-16314.4578356393--16314.4804000186)*${Cf})/${A})/2
variable        SFE equal (((-16314.4578356393--16314.4804000186)*1.60217657e-16)/${A})/2
variable        SFE equal (((-16314.4578356393--16314.4804000186)*1.60217657e-16)/1.26800239775789e-17)/2

print "${x_displace}, ${SFE}" append Result.txt screen no


# ===== Output =====
dump            1 all custom 1 dump.${a} id type x y z
dump            1 all custom 1 dump.3 id type x y z
run             1
WARNING: No fixes with time integration, atoms won't move (../verlet.cpp:60)
Per MPI rank memory allocation (min/avg/max) = 4.25 | 4.264 | 4.277 Mbytes
   Step         PotEng        c_eatoms   
        35  -16314.458     -16314.458    
        36  -16314.458     -16314.458    
Loop time of 0.0025457 on 8 procs for 1 steps with 3780 atoms

Performance: 33.940 ns/day, 0.707 hours/ns, 392.819 timesteps/s, 1.485 Matom-step/s
97.2% CPU use with 8 MPI tasks x no OpenMP threads

MPI task timing breakdown:
Section |  min time  |  avg time  |  max time  |%varavg| %total
---------------------------------------------------------------
Pair    | 0.00058724 | 0.00078501 | 0.00099281 |   0.0 | 30.84
Neigh   | 0          | 0          | 0          |   0.0 |  0.00
Comm    | 6.0885e-05 | 0.00026814 | 0.00046579 |   0.0 | 10.53
Output  | 0.0012853  | 0.0013757  | 0.0014739  |   0.2 | 54.04
Modify  | 2.895e-06  | 3.0669e-06 | 3.279e-06  |   0.0 |  0.12
Other   |            | 0.0001138  |            |       |  4.47

Nlocal:          472.5 ave         476 max         469 min
Histogram: 4 0 0 0 0 0 0 0 0 4
Nghost:         2023.5 ave        2027 max        2020 min
Histogram: 4 0 0 0 0 0 0 0 0 4
Neighs:          15120 ave       15516 max       14758 min
Histogram: 2 0 1 1 0 1 1 0 0 2
FullNghs:            0 ave           0 max           0 min
Histogram: 8 0 0 0 0 0 0 0 0 0

Total # of neighbors = 120960
Ave neighs/atom = 32
Neighbor list builds = 0
Dangerous builds = 0
undump 1

next            a
jump            in.SFE_Fe_BCC loop

reset_timestep  0

# Displace along x-direction ([111]), fault normal is z ([11-2])
variable        x_displace equal "-0.0005 * v_a * (v_latparam1)"
displace_atoms  top move ${x_displace} 0.0 0.0 units box
displace_atoms  top move -0.00572 0.0 0.0 units box
Displacing atoms ...

# Constrain motion along x and y to simulate shear
fix             1 all setforce 0.0 0.0 NULL

# Relax atomic positions (box is fixed)
min_style       cg
#minimize 1e-10 1e-10 1 1
minimize        1e-25 1e-25 10000 50000
Per MPI rank memory allocation (min/avg/max) = 5.375 | 5.389 | 5.402 Mbytes
   Step         PotEng        c_eatoms   
         0  -16314.417     -16314.417    
        10  -16314.418     -16314.418    
        20  -16314.418     -16314.418    
        30  -16314.418     -16314.418    
        40  -16314.418     -16314.418    
        41  -16314.418     -16314.418    
Loop time of 0.136761 on 8 procs for 41 steps with 3780 atoms

89.1% CPU use with 8 MPI tasks x no OpenMP threads

Minimization stats:
  Stopping criterion = energy tolerance
  Energy initial, next-to-last, final = 
     -16314.4172254298  -16314.4176162511  -16314.4176162511
  Force two-norm initial, final = 0.079401243 7.7340649e-13
  Force max component initial, final = 0.0037947892 6.0836752e-14
  Final line search alpha, max atom move = 1 6.0836752e-14
  Iterations, force evaluations = 41 82

MPI task timing breakdown:
Section |  min time  |  avg time  |  max time  |%varavg| %total
---------------------------------------------------------------
Pair    | 0.070668   | 0.074855   | 0.080017   |   1.1 | 54.73
Neigh   | 0          | 0          | 0          |   0.0 |  0.00
Comm    | 0.033118   | 0.039936   | 0.048243   |   2.2 | 29.20
Output  | 0.00015245 | 0.00019119 | 0.00046061 |   0.0 |  0.14
Modify  | 0.00020566 | 0.00020891 | 0.00021487 |   0.0 |  0.15
Other   |            | 0.02157    |            |       | 15.77

Nlocal:          472.5 ave         476 max         469 min
Histogram: 4 0 0 0 0 0 0 0 0 4
Nghost:         2023.5 ave        2027 max        2020 min
Histogram: 4 0 0 0 0 0 0 0 0 4
Neighs:          15120 ave       15516 max       14758 min
Histogram: 2 0 1 1 0 1 1 0 0 2
FullNghs:            0 ave           0 max           0 min
Histogram: 8 0 0 0 0 0 0 0 0 0

Total # of neighbors = 120960
Ave neighs/atom = 32
Neighbor list builds = 0
Dangerous builds = 0
run             0
WARNING: No fixes with time integration, atoms won't move (../verlet.cpp:60)
Per MPI rank memory allocation (min/avg/max) = 4.25 | 4.264 | 4.277 Mbytes
   Step         PotEng        c_eatoms   
        41  -16314.418     -16314.418    
Loop time of 2.95661e-05 on 8 procs for 0 steps with 3780 atoms

98.9% CPU use with 8 MPI tasks x no OpenMP threads

MPI task timing breakdown:
Section |  min time  |  avg time  |  max time  |%varavg| %total
---------------------------------------------------------------
Pair    | 0          | 0          | 0          |   0.0 |  0.00
Neigh   | 0          | 0          | 0          |   0.0 |  0.00
Comm    | 0          | 0          | 0          |   0.0 |  0.00
Output  | 0          | 0          | 0          |   0.0 |  0.00
Modify  | 0          | 0          | 0          |   0.0 |  0.00
Other   |            | 2.957e-05  |            |       |100.00

Nlocal:          472.5 ave         504 max         441 min
Histogram: 4 0 0 0 0 0 0 0 0 4
Nghost:         2023.5 ave        2055 max        1992 min
Histogram: 4 0 0 0 0 0 0 0 0 4
Neighs:          15120 ave       15893 max       14307 min
Histogram: 4 0 0 0 0 0 0 0 0 4
FullNghs:            0 ave           0 max           0 min
Histogram: 8 0 0 0 0 0 0 0 0 0

Total # of neighbors = 120960
Ave neighs/atom = 32
Neighbor list builds = 0
Dangerous builds = 0
#run             1

#unfix           1

# ===== SFE Calculation =====
variable        Ef equal c_eatoms
variable        Cf equal 1.60217657e-16    # eV to mJ
variable        A equal ${Area}*1e-20
variable        A equal 1268.00239775789*1e-20
variable        SFE equal (((${Ef}-${Eo})*${Cf})/${A})/2
variable        SFE equal (((-16314.417616251-${Eo})*${Cf})/${A})/2
variable        SFE equal (((-16314.417616251--16314.4804000186)*${Cf})/${A})/2
variable        SFE equal (((-16314.417616251--16314.4804000186)*1.60217657e-16)/${A})/2
variable        SFE equal (((-16314.417616251--16314.4804000186)*1.60217657e-16)/1.26800239775789e-17)/2

print "${x_displace}, ${SFE}" append Result.txt screen no


# ===== Output =====
dump            1 all custom 1 dump.${a} id type x y z
dump            1 all custom 1 dump.4 id type x y z
run             1
WARNING: No fixes with time integration, atoms won't move (../verlet.cpp:60)
Per MPI rank memory allocation (min/avg/max) = 4.25 | 4.264 | 4.277 Mbytes
   Step         PotEng        c_eatoms   
        41  -16314.418     -16314.418    
        42  -16314.418     -16314.418    
Loop time of 0.00227595 on 8 procs for 1 steps with 3780 atoms

Performance: 37.962 ns/day, 0.632 hours/ns, 439.376 timesteps/s, 1.661 Matom-step/s
93.8% CPU use with 8 MPI tasks x no OpenMP threads

MPI task timing breakdown:
Section |  min time  |  avg time  |  max time  |%varavg| %total
---------------------------------------------------------------
Pair    | 0.00065996 | 0.00068372 | 0.00070555 |   0.0 | 30.04
Neigh   | 0          | 0          | 0          |   0.0 |  0.00
Comm    | 6.9931e-05 | 9.0645e-05 | 0.00011348 |   0.0 |  3.98
Output  | 0.0011517  | 0.0012692  | 0.0014738  |   0.3 | 55.77
Modify  | 2.839e-06  | 3.2553e-06 | 3.634e-06  |   0.0 |  0.14
Other   |            | 0.0002291  |            |       | 10.07

Nlocal:          472.5 ave         504 max         441 min
Histogram: 4 0 0 0 0 0 0 0 0 4
Nghost:         2023.5 ave        2055 max        1992 min
Histogram: 4 0 0 0 0 0 0 0 0 4
Neighs:          15120 ave       15893 max       14307 min
Histogram: 4 0 0 0 0 0 0 0 0 4
FullNghs:            0 ave           0 max           0 min
Histogram: 8 0 0 0 0 0 0 0 0 0

Total # of neighbors = 120960
Ave neighs/atom = 32
Neighbor list builds = 0
Dangerous builds = 0
undump 1

next            a
jump            in.SFE_Fe_BCC loop

reset_timestep  0

# Displace along x-direction ([111]), fault normal is z ([11-2])
variable        x_displace equal "-0.0005 * v_a * (v_latparam1)"
displace_atoms  top move ${x_displace} 0.0 0.0 units box
displace_atoms  top move -0.00715 0.0 0.0 units box
Displacing atoms ...

# Constrain motion along x and y to simulate shear
fix             1 all setforce 0.0 0.0 NULL

# Relax atomic positions (box is fixed)
min_style       cg
#minimize 1e-10 1e-10 1 1
minimize        1e-25 1e-25 10000 50000
Per MPI rank memory allocation (min/avg/max) = 5.375 | 5.389 | 5.402 Mbytes
   Step         PotEng        c_eatoms   
         0  -16314.338     -16314.338    
        10  -16314.339     -16314.339    
        20  -16314.339     -16314.339    
        30  -16314.339     -16314.339    
        36  -16314.339     -16314.339    
Loop time of 0.116581 on 8 procs for 36 steps with 3780 atoms

88.6% CPU use with 8 MPI tasks x no OpenMP threads

Minimization stats:
  Stopping criterion = energy tolerance
  Energy initial, next-to-last, final = 
     -16314.3382360155  -16314.3388915273  -16314.3388915273
  Force two-norm initial, final = 0.10486668 3.5299333e-12
  Force max component initial, final = 0.0050672003 1.5101809e-13
  Final line search alpha, max atom move = 1 1.5101809e-13
  Iterations, force evaluations = 36 72

MPI task timing breakdown:
Section |  min time  |  avg time  |  max time  |%varavg| %total
---------------------------------------------------------------
Pair    | 0.058453   | 0.062888   | 0.080944   |   2.8 | 53.94
Neigh   | 0          | 0          | 0          |   0.0 |  0.00
Comm    | 0.024537   | 0.044445   | 0.051347   |   3.7 | 38.12
Output  | 0.00028266 | 0.00030504 | 0.00045794 |   0.0 |  0.26
Modify  | 0.00017795 | 0.00018849 | 0.00019761 |   0.0 |  0.16
Other   |            | 0.008755   |            |       |  7.51

Nlocal:          472.5 ave         504 max         441 min
Histogram: 4 0 0 0 0 0 0 0 0 4
Nghost:         2023.5 ave        2055 max        1992 min
Histogram: 4 0 0 0 0 0 0 0 0 4
Neighs:          15120 ave       15893 max       14307 min
Histogram: 4 0 0 0 0 0 0 0 0 4
FullNghs:            0 ave           0 max           0 min
Histogram: 8 0 0 0 0 0 0 0 0 0

Total # of neighbors = 120960
Ave neighs/atom = 32
Neighbor list builds = 0
Dangerous builds = 0
run             0
WARNING: No fixes with time integration, atoms won't move (../verlet.cpp:60)
Per MPI rank memory allocation (min/avg/max) = 4.25 | 4.264 | 4.277 Mbytes
   Step         PotEng        c_eatoms   
        36  -16314.339     -16314.339    
Loop time of 2.27857e-05 on 8 procs for 0 steps with 3780 atoms

101.5% CPU use with 8 MPI tasks x no OpenMP threads

MPI task timing breakdown:
Section |  min time  |  avg time  |  max time  |%varavg| %total
---------------------------------------------------------------
Pair    | 0          | 0          | 0          |   0.0 |  0.00
Neigh   | 0          | 0          | 0          |   0.0 |  0.00
Comm    | 0          | 0          | 0          |   0.0 |  0.00
Output  | 0          | 0          | 0          |   0.0 |  0.00
Modify  | 0          | 0          | 0          |   0.0 |  0.00
Other   |            | 2.279e-05  |            |       |100.00

Nlocal:          472.5 ave         504 max         441 min
Histogram: 4 0 0 0 0 0 0 0 0 4
Nghost:         2023.5 ave        2055 max        1992 min
Histogram: 4 0 0 0 0 0 0 0 0 4
Neighs:          15120 ave       15893 max       14307 min
Histogram: 4 0 0 0 0 0 0 0 0 4
FullNghs:            0 ave           0 max           0 min
Histogram: 8 0 0 0 0 0 0 0 0 0

Total # of neighbors = 120960
Ave neighs/atom = 32
Neighbor list builds = 0
Dangerous builds = 0
#run             1

#unfix           1

# ===== SFE Calculation =====
variable        Ef equal c_eatoms
variable        Cf equal 1.60217657e-16    # eV to mJ
variable        A equal ${Area}*1e-20
variable        A equal 1268.00239775789*1e-20
variable        SFE equal (((${Ef}-${Eo})*${Cf})/${A})/2
variable        SFE equal (((-16314.3388915273-${Eo})*${Cf})/${A})/2
variable        SFE equal (((-16314.3388915273--16314.4804000186)*${Cf})/${A})/2
variable        SFE equal (((-16314.3388915273--16314.4804000186)*1.60217657e-16)/${A})/2
variable        SFE equal (((-16314.3388915273--16314.4804000186)*1.60217657e-16)/1.26800239775789e-17)/2

print "${x_displace}, ${SFE}" append Result.txt screen no


# ===== Output =====
dump            1 all custom 1 dump.${a} id type x y z
dump            1 all custom 1 dump.5 id type x y z
run             1
WARNING: No fixes with time integration, atoms won't move (../verlet.cpp:60)
Per MPI rank memory allocation (min/avg/max) = 4.25 | 4.264 | 4.277 Mbytes
   Step         PotEng        c_eatoms   
        36  -16314.339     -16314.339    
        37  -16314.339     -16314.339    
Loop time of 0.00217063 on 8 procs for 1 steps with 3780 atoms

Performance: 39.804 ns/day, 0.603 hours/ns, 460.695 timesteps/s, 1.741 Matom-step/s
99.1% CPU use with 8 MPI tasks x no OpenMP threads

MPI task timing breakdown:
Section |  min time  |  avg time  |  max time  |%varavg| %total
---------------------------------------------------------------
Pair    | 0.0005947  | 0.0006164  | 0.000641   |   0.0 | 28.40
Neigh   | 0          | 0          | 0          |   0.0 |  0.00
Comm    | 6.1553e-05 | 8.4749e-05 | 0.00010465 |   0.0 |  3.90
Output  | 0.0012707  | 0.0013579  | 0.0014497  |   0.2 | 62.56
Modify  | 2.59e-06   | 2.7977e-06 | 3.047e-06  |   0.0 |  0.13
Other   |            | 0.0001087  |            |       |  5.01

Nlocal:          472.5 ave         504 max         441 min
Histogram: 4 0 0 0 0 0 0 0 0 4
Nghost:         2023.5 ave        2055 max        1992 min
Histogram: 4 0 0 0 0 0 0 0 0 4
Neighs:          15120 ave       15893 max       14307 min
Histogram: 4 0 0 0 0 0 0 0 0 4
FullNghs:            0 ave           0 max           0 min
Histogram: 8 0 0 0 0 0 0 0 0 0

Total # of neighbors = 120960
Ave neighs/atom = 32
Neighbor list builds = 0
Dangerous builds = 0
undump 1

next            a
jump            in.SFE_Fe_BCC loop

reset_timestep  0

# Displace along x-direction ([111]), fault normal is z ([11-2])
variable        x_displace equal "-0.0005 * v_a * (v_latparam1)"
displace_atoms  top move ${x_displace} 0.0 0.0 units box
displace_atoms  top move -0.00858 0.0 0.0 units box
Displacing atoms ...

# Constrain motion along x and y to simulate shear
fix             1 all setforce 0.0 0.0 NULL

# Relax atomic positions (box is fixed)
min_style       cg
#minimize 1e-10 1e-10 1 1
minimize        1e-25 1e-25 10000 50000
Per MPI rank memory allocation (min/avg/max) = 5.375 | 5.389 | 5.402 Mbytes
   Step         PotEng        c_eatoms   
         0  -16314.202     -16314.202    
        10  -16314.203     -16314.203    
        20  -16314.203     -16314.203    
        30  -16314.203     -16314.203    
        40  -16314.203     -16314.203    
        47  -16314.203     -16314.203    
Loop time of 0.1173 on 8 procs for 47 steps with 3780 atoms

92.4% CPU use with 8 MPI tasks x no OpenMP threads

Minimization stats:
  Stopping criterion = energy tolerance
  Energy initial, next-to-last, final = 
     -16314.2015693154  -16314.2026070065  -16314.2026070065
  Force two-norm initial, final = 0.13564276 7.6341261e-13
  Force max component initial, final = 0.0065323184 6.555867e-14
  Final line search alpha, max atom move = 1 6.555867e-14
  Iterations, force evaluations = 47 94

MPI task timing breakdown:
Section |  min time  |  avg time  |  max time  |%varavg| %total
---------------------------------------------------------------
Pair    | 0.070505   | 0.076359   | 0.08256    |   1.4 | 65.10
Neigh   | 0          | 0          | 0          |   0.0 |  0.00
Comm    | 0.024154   | 0.03077    | 0.036312   |   2.2 | 26.23
Output  | 0.00014894 | 0.00018985 | 0.00047521 |   0.0 |  0.16
Modify  | 0.00021458 | 0.00022924 | 0.00024529 |   0.0 |  0.20
Other   |            | 0.009751   |            |       |  8.31

Nlocal:          472.5 ave         504 max         441 min
Histogram: 4 0 0 0 0 0 0 0 0 4
Nghost:         2023.5 ave        2055 max        1992 min
Histogram: 4 0 0 0 0 0 0 0 0 4
Neighs:          15120 ave       15893 max       14307 min
Histogram: 4 0 0 0 0 0 0 0 0 4
FullNghs:            0 ave           0 max           0 min
Histogram: 8 0 0 0 0 0 0 0 0 0

Total # of neighbors = 120960
Ave neighs/atom = 32
Neighbor list builds = 0
Dangerous builds = 0
run             0
WARNING: No fixes with time integration, atoms won't move (../verlet.cpp:60)
Per MPI rank memory allocation (min/avg/max) = 4.25 | 4.264 | 4.277 Mbytes
   Step         PotEng        c_eatoms   
        47  -16314.203     -16314.203    
Loop time of 2.14775e-06 on 8 procs for 0 steps with 3780 atoms

128.0% CPU use with 8 MPI tasks x no OpenMP threads

MPI task timing breakdown:
Section |  min time  |  avg time  |  max time  |%varavg| %total
---------------------------------------------------------------
Pair    | 0          | 0          | 0          |   0.0 |  0.00
Neigh   | 0          | 0          | 0          |   0.0 |  0.00
Comm    | 0          | 0          | 0          |   0.0 |  0.00
Output  | 0          | 0          | 0          |   0.0 |  0.00
Modify  | 0          | 0          | 0          |   0.0 |  0.00
Other   |            | 2.148e-06  |            |       |100.00

Nlocal:          472.5 ave         504 max         441 min
Histogram: 4 0 0 0 0 0 0 0 0 4
Nghost:         2023.5 ave        2055 max        1992 min
Histogram: 4 0 0 0 0 0 0 0 0 4
Neighs:          15120 ave       15893 max       14307 min
Histogram: 4 0 0 0 0 0 0 0 0 4
FullNghs:            0 ave           0 max           0 min
Histogram: 8 0 0 0 0 0 0 0 0 0

Total # of neighbors = 120960
Ave neighs/atom = 32
Neighbor list builds = 0
Dangerous builds = 0
#run             1

#unfix           1

# ===== SFE Calculation =====
variable        Ef equal c_eatoms
variable        Cf equal 1.60217657e-16    # eV to mJ
variable        A equal ${Area}*1e-20
variable        A equal 1268.00239775789*1e-20
variable        SFE equal (((${Ef}-${Eo})*${Cf})/${A})/2
variable        SFE equal (((-16314.2026070064-${Eo})*${Cf})/${A})/2
variable        SFE equal (((-16314.2026070064--16314.4804000186)*${Cf})/${A})/2
variable        SFE equal (((-16314.2026070064--16314.4804000186)*1.60217657e-16)/${A})/2
variable        SFE equal (((-16314.2026070064--16314.4804000186)*1.60217657e-16)/1.26800239775789e-17)/2

print "${x_displace}, ${SFE}" append Result.txt screen no


# ===== Output =====
dump            1 all custom 1 dump.${a} id type x y z
dump            1 all custom 1 dump.6 id type x y z
run             1
WARNING: No fixes with time integration, atoms won't move (../verlet.cpp:60)
Per MPI rank memory allocation (min/avg/max) = 4.25 | 4.264 | 4.277 Mbytes
   Step         PotEng        c_eatoms   
        47  -16314.203     -16314.203    
        48  -16314.203     -16314.203    
Loop time of 0.00435009 on 8 procs for 1 steps with 3780 atoms

Performance: 19.862 ns/day, 1.208 hours/ns, 229.880 timesteps/s, 868.947 katom-step/s
90.8% CPU use with 8 MPI tasks x no OpenMP threads

MPI task timing breakdown:
Section |  min time  |  avg time  |  max time  |%varavg| %total
---------------------------------------------------------------
Pair    | 0.00062729 | 0.0008437  | 0.002162   |   0.0 | 19.40
Neigh   | 0          | 0          | 0          |   0.0 |  0.00
Comm    | 0.00048482 | 0.0016142  | 0.0020669  |   1.2 | 37.11
Output  | 0.0014805  | 0.0017647  | 0.0020789  |   0.6 | 40.57
Modify  | 3.221e-06  | 3.5309e-06 | 4.041e-06  |   0.0 |  0.08
Other   |            | 0.000124   |            |       |  2.85

Nlocal:          472.5 ave         504 max         441 min
Histogram: 4 0 0 0 0 0 0 0 0 4
Nghost:         2023.5 ave        2055 max        1992 min
Histogram: 4 0 0 0 0 0 0 0 0 4
Neighs:          15120 ave       15893 max       14307 min
Histogram: 4 0 0 0 0 0 0 0 0 4
FullNghs:            0 ave           0 max           0 min
Histogram: 8 0 0 0 0 0 0 0 0 0

Total # of neighbors = 120960
Ave neighs/atom = 32
Neighbor list builds = 0
Dangerous builds = 0
undump 1

next            a
jump            in.SFE_Fe_BCC loop

reset_timestep  0

# Displace along x-direction ([111]), fault normal is z ([11-2])
variable        x_displace equal "-0.0005 * v_a * (v_latparam1)"
displace_atoms  top move ${x_displace} 0.0 0.0 units box
displace_atoms  top move -0.01001 0.0 0.0 units box
Displacing atoms ...

# Constrain motion along x and y to simulate shear
fix             1 all setforce 0.0 0.0 NULL

# Relax atomic positions (box is fixed)
min_style       cg
#minimize 1e-10 1e-10 1 1
minimize        1e-25 1e-25 10000 50000
Per MPI rank memory allocation (min/avg/max) = 5.375 | 5.389 | 5.402 Mbytes
   Step         PotEng        c_eatoms   
         0  -16313.984     -16313.984    
        10  -16313.986     -16313.986    
        20  -16313.986     -16313.986    
        30  -16313.986     -16313.986    
        40  -16313.986     -16313.986    
        47  -16313.986     -16313.986    
Loop time of 0.121143 on 8 procs for 47 steps with 3780 atoms

91.5% CPU use with 8 MPI tasks x no OpenMP threads

Minimization stats:
  Stopping criterion = energy tolerance
  Energy initial, next-to-last, final = 
      -16313.984383509  -16313.9859725484  -16313.9859725484
  Force two-norm initial, final = 0.17362851 7.8294101e-13
  Force max component initial, final = 0.0082081997 7.772949e-14
  Final line search alpha, max atom move = 1 7.772949e-14
  Iterations, force evaluations = 47 94

MPI task timing breakdown:
Section |  min time  |  avg time  |  max time  |%varavg| %total
---------------------------------------------------------------
Pair    | 0.065374   | 0.070035   | 0.080735   |   1.7 | 57.81
Neigh   | 0          | 0          | 0          |   0.0 |  0.00
Comm    | 0.027588   | 0.038628   | 0.043098   |   2.4 | 31.89
Output  | 0.00015228 | 0.00019369 | 0.00048033 |   0.0 |  0.16
Modify  | 0.00021991 | 0.00024508 | 0.00030034 |   0.0 |  0.20
Other   |            | 0.01204    |            |       |  9.94

Nlocal:          472.5 ave         504 max         441 min
Histogram: 4 0 0 0 0 0 0 0 0 4
Nghost:         2023.5 ave        2055 max        1992 min
Histogram: 4 0 0 0 0 0 0 0 0 4
Neighs:          15120 ave       15893 max       14307 min
Histogram: 4 0 0 0 0 0 0 0 0 4
FullNghs:            0 ave           0 max           0 min
Histogram: 8 0 0 0 0 0 0 0 0 0

Total # of neighbors = 120960
Ave neighs/atom = 32
Neighbor list builds = 0
Dangerous builds = 0
run             0
WARNING: No fixes with time integration, atoms won't move (../verlet.cpp:60)
Per MPI rank memory allocation (min/avg/max) = 4.25 | 4.264 | 4.277 Mbytes
   Step         PotEng        c_eatoms   
        47  -16313.986     -16313.986    
Loop time of 1.62604e-05 on 8 procs for 0 steps with 3780 atoms

100.7% CPU use with 8 MPI tasks x no OpenMP threads

MPI task timing breakdown:
Section |  min time  |  avg time  |  max time  |%varavg| %total
---------------------------------------------------------------
Pair    | 0          | 0          | 0          |   0.0 |  0.00
Neigh   | 0          | 0          | 0          |   0.0 |  0.00
Comm    | 0          | 0          | 0          |   0.0 |  0.00
Output  | 0          | 0          | 0          |   0.0 |  0.00
Modify  | 0          | 0          | 0          |   0.0 |  0.00
Other   |            | 1.626e-05  |            |       |100.00

Nlocal:          472.5 ave         504 max         441 min
Histogram: 4 0 0 0 0 0 0 0 0 4
Nghost:         2023.5 ave        2055 max        1992 min
Histogram: 4 0 0 0 0 0 0 0 0 4
Neighs:          15120 ave       15893 max       14307 min
Histogram: 4 0 0 0 0 0 0 0 0 4
FullNghs:            0 ave           0 max           0 min
Histogram: 8 0 0 0 0 0 0 0 0 0

Total # of neighbors = 120960
Ave neighs/atom = 32
Neighbor list builds = 0
Dangerous builds = 0
#run             1

#unfix           1

# ===== SFE Calculation =====
variable        Ef equal c_eatoms
variable        Cf equal 1.60217657e-16    # eV to mJ
variable        A equal ${Area}*1e-20
variable        A equal 1268.00239775789*1e-20
variable        SFE equal (((${Ef}-${Eo})*${Cf})/${A})/2
variable        SFE equal (((-16313.985972548-${Eo})*${Cf})/${A})/2
variable        SFE equal (((-16313.985972548--16314.4804000186)*${Cf})/${A})/2
variable        SFE equal (((-16313.985972548--16314.4804000186)*1.60217657e-16)/${A})/2
variable        SFE equal (((-16313.985972548--16314.4804000186)*1.60217657e-16)/1.26800239775789e-17)/2

print "${x_displace}, ${SFE}" append Result.txt screen no


# ===== Output =====
dump            1 all custom 1 dump.${a} id type x y z
dump            1 all custom 1 dump.7 id type x y z
run             1
WARNING: No fixes with time integration, atoms won't move (../verlet.cpp:60)
Per MPI rank memory allocation (min/avg/max) = 4.25 | 4.264 | 4.277 Mbytes
   Step         PotEng        c_eatoms   
        47  -16313.986     -16313.986    
        48  -16313.986     -16313.986    
Loop time of 0.00792667 on 8 procs for 1 steps with 3780 atoms

Performance: 10.900 ns/day, 2.202 hours/ns, 126.156 timesteps/s, 476.871 katom-step/s
87.9% CPU use with 8 MPI tasks x no OpenMP threads

MPI task timing breakdown:
Section |  min time  |  avg time  |  max time  |%varavg| %total
---------------------------------------------------------------
Pair    | 0.00071435 | 0.001146   | 0.0040334  |   3.2 | 14.46
Neigh   | 0          | 0          | 0          |   0.0 |  0.00
Comm    | 8.3804e-05 | 0.0030675  | 0.0037855  |   2.1 | 38.70
Output  | 0.0032571  | 0.0035897  | 0.0037798  |   0.3 | 45.29
Modify  | 3.047e-06  | 3.334e-06  | 3.919e-06  |   0.0 |  0.04
Other   |            | 0.00012    |            |       |  1.51

Nlocal:          472.5 ave         504 max         441 min
Histogram: 4 0 0 0 0 0 0 0 0 4
Nghost:         2023.5 ave        2055 max        1992 min
Histogram: 4 0 0 0 0 0 0 0 0 4
Neighs:          15120 ave       15893 max       14307 min
Histogram: 4 0 0 0 0 0 0 0 0 4
FullNghs:            0 ave           0 max           0 min
Histogram: 8 0 0 0 0 0 0 0 0 0

Total # of neighbors = 120960
Ave neighs/atom = 32
Neighbor list builds = 0
Dangerous builds = 0
undump 1

next            a
jump            in.SFE_Fe_BCC loop

reset_timestep  0

# Displace along x-direction ([111]), fault normal is z ([11-2])
variable        x_displace equal "-0.0005 * v_a * (v_latparam1)"
displace_atoms  top move ${x_displace} 0.0 0.0 units box
displace_atoms  top move -0.01144 0.0 0.0 units box
Displacing atoms ...

# Constrain motion along x and y to simulate shear
fix             1 all setforce 0.0 0.0 NULL

# Relax atomic positions (box is fixed)
min_style       cg
#minimize 1e-10 1e-10 1 1
minimize        1e-25 1e-25 10000 50000
Per MPI rank memory allocation (min/avg/max) = 5.375 | 5.389 | 5.402 Mbytes
   Step         PotEng        c_eatoms   
         0  -16313.66      -16313.66     
        10  -16313.663     -16313.663    
        20  -16313.663     -16313.663    
        30  -16313.663     -16313.663    
        40  -16313.663     -16313.663    
        46  -16313.663     -16313.663    
Loop time of 0.146829 on 8 procs for 46 steps with 3780 atoms

89.6% CPU use with 8 MPI tasks x no OpenMP threads

Minimization stats:
  Stopping criterion = energy tolerance
  Energy initial, next-to-last, final = 
     -16313.6603251358  -16313.6627103488  -16313.6627103488
  Force two-norm initial, final = 0.22050695 1.676253e-12
  Force max component initial, final = 0.010103658 1.3115724e-13
  Final line search alpha, max atom move = 1 1.3115724e-13
  Iterations, force evaluations = 46 92

MPI task timing breakdown:
Section |  min time  |  avg time  |  max time  |%varavg| %total
---------------------------------------------------------------
Pair    | 0.074978   | 0.082923   | 0.095234   |   2.4 | 56.48
Neigh   | 0          | 0          | 0          |   0.0 |  0.00
Comm    | 0.035662   | 0.048205   | 0.056641   |   3.3 | 32.83
Output  | 0.00015145 | 0.00017119 | 0.0003069  |   0.0 |  0.12
Modify  | 0.00022379 | 0.00023569 | 0.00024949 |   0.0 |  0.16
Other   |            | 0.01529    |            |       | 10.42

Nlocal:          472.5 ave         504 max         441 min
Histogram: 4 0 0 0 0 0 0 0 0 4
Nghost:         2023.5 ave        2055 max        1992 min
Histogram: 4 0 0 0 0 0 0 0 0 4
Neighs:          15120 ave       15893 max       14307 min
Histogram: 4 0 0 0 0 0 0 0 0 4
FullNghs:            0 ave           0 max           0 min
Histogram: 8 0 0 0 0 0 0 0 0 0

Total # of neighbors = 120960
Ave neighs/atom = 32
Neighbor list builds = 0
Dangerous builds = 0
run             0
WARNING: No fixes with time integration, atoms won't move (../verlet.cpp:60)
Per MPI rank memory allocation (min/avg/max) = 4.25 | 4.264 | 4.277 Mbytes
   Step         PotEng        c_eatoms   
        46  -16313.663     -16313.663    
Loop time of 2.776e-06 on 8 procs for 0 steps with 3780 atoms

130.6% CPU use with 8 MPI tasks x no OpenMP threads

MPI task timing breakdown:
Section |  min time  |  avg time  |  max time  |%varavg| %total
---------------------------------------------------------------
Pair    | 0          | 0          | 0          |   0.0 |  0.00
Neigh   | 0          | 0          | 0          |   0.0 |  0.00
Comm    | 0          | 0          | 0          |   0.0 |  0.00
Output  | 0          | 0          | 0          |   0.0 |  0.00
Modify  | 0          | 0          | 0          |   0.0 |  0.00
Other   |            | 2.776e-06  |            |       |100.00

Nlocal:          472.5 ave         504 max         441 min
Histogram: 4 0 0 0 0 0 0 0 0 4
Nghost:         2023.5 ave        2055 max        1992 min
Histogram: 4 0 0 0 0 0 0 0 0 4
Neighs:          15120 ave       15893 max       14307 min
Histogram: 4 0 0 0 0 0 0 0 0 4
FullNghs:            0 ave           0 max           0 min
Histogram: 8 0 0 0 0 0 0 0 0 0

Total # of neighbors = 120960
Ave neighs/atom = 32
Neighbor list builds = 0
Dangerous builds = 0
#run             1

#unfix           1

# ===== SFE Calculation =====
variable        Ef equal c_eatoms
variable        Cf equal 1.60217657e-16    # eV to mJ
variable        A equal ${Area}*1e-20
variable        A equal 1268.00239775789*1e-20
variable        SFE equal (((${Ef}-${Eo})*${Cf})/${A})/2
variable        SFE equal (((-16313.6627103489-${Eo})*${Cf})/${A})/2
variable        SFE equal (((-16313.6627103489--16314.4804000186)*${Cf})/${A})/2
variable        SFE equal (((-16313.6627103489--16314.4804000186)*1.60217657e-16)/${A})/2
variable        SFE equal (((-16313.6627103489--16314.4804000186)*1.60217657e-16)/1.26800239775789e-17)/2

print "${x_displace}, ${SFE}" append Result.txt screen no


# ===== Output =====
dump            1 all custom 1 dump.${a} id type x y z
dump            1 all custom 1 dump.8 id type x y z
run             1
WARNING: No fixes with time integration, atoms won't move (../verlet.cpp:60)
Per MPI rank memory allocation (min/avg/max) = 4.25 | 4.264 | 4.277 Mbytes
   Step         PotEng        c_eatoms   
        46  -16313.663     -16313.663    
        47  -16313.663     -16313.663    
Loop time of 0.00296531 on 8 procs for 1 steps with 3780 atoms

Performance: 29.137 ns/day, 0.824 hours/ns, 337.233 timesteps/s, 1.275 Matom-step/s
95.3% CPU use with 8 MPI tasks x no OpenMP threads

MPI task timing breakdown:
Section |  min time  |  avg time  |  max time  |%varavg| %total
---------------------------------------------------------------
Pair    | 0.00061171 | 0.0011197  | 0.0012995  |   0.8 | 37.76
Neigh   | 0          | 0          | 0          |   0.0 |  0.00
Comm    | 0.00013943 | 0.00032064 | 0.00082952 |   0.0 | 10.81
Output  | 0.0013307  | 0.0014138  | 0.0014994  |   0.1 | 47.68
Modify  | 3.122e-06  | 3.362e-06  | 3.62e-06   |   0.0 |  0.11
Other   |            | 0.0001078  |            |       |  3.64

Nlocal:          472.5 ave         504 max         441 min
Histogram: 4 0 0 0 0 0 0 0 0 4
Nghost:         2023.5 ave        2055 max        1992 min
Histogram: 4 0 0 0 0 0 0 0 0 4
Neighs:          15120 ave       15893 max       14307 min
Histogram: 4 0 0 0 0 0 0 0 0 4
FullNghs:            0 ave           0 max           0 min
Histogram: 8 0 0 0 0 0 0 0 0 0

Total # of neighbors = 120960
Ave neighs/atom = 32
Neighbor list builds = 0
Dangerous builds = 0
undump 1

next            a
jump            in.SFE_Fe_BCC loop

reset_timestep  0

# Displace along x-direction ([111]), fault normal is z ([11-2])
variable        x_displace equal "-0.0005 * v_a * (v_latparam1)"
displace_atoms  top move ${x_displace} 0.0 0.0 units box
displace_atoms  top move -0.01287 0.0 0.0 units box
Displacing atoms ...

# Constrain motion along x and y to simulate shear
fix             1 all setforce 0.0 0.0 NULL

# Relax atomic positions (box is fixed)
min_style       cg
#minimize 1e-10 1e-10 1 1
minimize        1e-25 1e-25 10000 50000
Per MPI rank memory allocation (min/avg/max) = 5.375 | 5.389 | 5.402 Mbytes
   Step         PotEng        c_eatoms   
         0  -16313.201     -16313.201    
        10  -16313.204     -16313.204    
        20  -16313.204     -16313.204    
        30  -16313.204     -16313.204    
        40  -16313.204     -16313.204    
        50  -16313.204     -16313.204    
        52  -16313.204     -16313.204    
Loop time of 0.24969 on 8 procs for 52 steps with 3780 atoms

85.9% CPU use with 8 MPI tasks x no OpenMP threads

Minimization stats:
  Stopping criterion = energy tolerance
  Energy initial, next-to-last, final = 
     -16313.2006557404  -16313.2041375598  -16313.2041375598
  Force two-norm initial, final = 0.27169887 7.0055337e-13
  Force max component initial, final = 0.012217696 5.7098423e-14
  Final line search alpha, max atom move = 1 5.7098423e-14
  Iterations, force evaluations = 52 104

MPI task timing breakdown:
Section |  min time  |  avg time  |  max time  |%varavg| %total
---------------------------------------------------------------
Pair    | 0.12258    | 0.13408    | 0.16837    |   3.7 | 53.70
Neigh   | 0          | 0          | 0          |   0.0 |  0.00
Comm    | 0.052252   | 0.082252   | 0.095835   |   4.4 | 32.94
Output  | 0.00022897 | 0.00039414 | 0.0015452  |   0.0 |  0.16
Modify  | 0.00028221 | 0.00029636 | 0.00031157 |   0.0 |  0.12
Other   |            | 0.03266    |            |       | 13.08

Nlocal:          472.5 ave         504 max         441 min
Histogram: 4 0 0 0 0 0 0 0 0 4
Nghost:         2023.5 ave        2055 max        1992 min
Histogram: 4 0 0 0 0 0 0 0 0 4
Neighs:          15120 ave       15893 max       14307 min
Histogram: 4 0 0 0 0 0 0 0 0 4
FullNghs:            0 ave           0 max           0 min
Histogram: 8 0 0 0 0 0 0 0 0 0

Total # of neighbors = 120960
Ave neighs/atom = 32
Neighbor list builds = 0
Dangerous builds = 0
run             0
WARNING: No fixes with time integration, atoms won't move (../verlet.cpp:60)
Per MPI rank memory allocation (min/avg/max) = 4.25 | 4.264 | 4.277 Mbytes
   Step         PotEng        c_eatoms   
        52  -16313.204     -16313.204    
Loop time of 2.32975e-06 on 8 procs for 0 steps with 3780 atoms

112.7% CPU use with 8 MPI tasks x no OpenMP threads

MPI task timing breakdown:
Section |  min time  |  avg time  |  max time  |%varavg| %total
---------------------------------------------------------------
Pair    | 0          | 0          | 0          |   0.0 |  0.00
Neigh   | 0          | 0          | 0          |   0.0 |  0.00
Comm    | 0          | 0          | 0          |   0.0 |  0.00
Output  | 0          | 0          | 0          |   0.0 |  0.00
Modify  | 0          | 0          | 0          |   0.0 |  0.00
Other   |            | 2.33e-06   |            |       |100.00

Nlocal:          472.5 ave         504 max         441 min
Histogram: 4 0 0 0 0 0 0 0 0 4
Nghost:         2023.5 ave        2055 max        1992 min
Histogram: 4 0 0 0 0 0 0 0 0 4
Neighs:          15120 ave       15893 max       14307 min
Histogram: 4 0 0 0 0 0 0 0 0 4
FullNghs:            0 ave           0 max           0 min
Histogram: 8 0 0 0 0 0 0 0 0 0

Total # of neighbors = 120960
Ave neighs/atom = 32
Neighbor list builds = 0
Dangerous builds = 0
#run             1

#unfix           1

# ===== SFE Calculation =====
variable        Ef equal c_eatoms
variable        Cf equal 1.60217657e-16    # eV to mJ
variable        A equal ${Area}*1e-20
variable        A equal 1268.00239775789*1e-20
variable        SFE equal (((${Ef}-${Eo})*${Cf})/${A})/2
variable        SFE equal (((-16313.2041375594-${Eo})*${Cf})/${A})/2
variable        SFE equal (((-16313.2041375594--16314.4804000186)*${Cf})/${A})/2
variable        SFE equal (((-16313.2041375594--16314.4804000186)*1.60217657e-16)/${A})/2
variable        SFE equal (((-16313.2041375594--16314.4804000186)*1.60217657e-16)/1.26800239775789e-17)/2

print "${x_displace}, ${SFE}" append Result.txt screen no


# ===== Output =====
dump            1 all custom 1 dump.${a} id type x y z
dump            1 all custom 1 dump.9 id type x y z
run             1
WARNING: No fixes with time integration, atoms won't move (../verlet.cpp:60)
Per MPI rank memory allocation (min/avg/max) = 4.25 | 4.264 | 4.277 Mbytes
   Step         PotEng        c_eatoms   
        52  -16313.204     -16313.204    
        53  -16313.204     -16313.204    
Loop time of 0.0024165 on 8 procs for 1 steps with 3780 atoms

Performance: 35.754 ns/day, 0.671 hours/ns, 413.822 timesteps/s, 1.564 Matom-step/s
88.5% CPU use with 8 MPI tasks x no OpenMP threads

MPI task timing breakdown:
Section |  min time  |  avg time  |  max time  |%varavg| %total
---------------------------------------------------------------
Pair    | 0.00073007 | 0.00075404 | 0.00077861 |   0.0 | 31.20
Neigh   | 0          | 0          | 0          |   0.0 |  0.00
Comm    | 7.5756e-05 | 0.00010016 | 0.00012443 |   0.0 |  4.14
Output  | 0.0012391  | 0.0013228  | 0.0014125  |   0.2 | 54.74
Modify  | 2.872e-06  | 3.399e-06  | 3.794e-06  |   0.0 |  0.14
Other   |            | 0.0002361  |            |       |  9.77

Nlocal:          472.5 ave         504 max         441 min
Histogram: 4 0 0 0 0 0 0 0 0 4
Nghost:         2023.5 ave        2055 max        1992 min
Histogram: 4 0 0 0 0 0 0 0 0 4
Neighs:          15120 ave       15893 max       14307 min
Histogram: 4 0 0 0 0 0 0 0 0 4
FullNghs:            0 ave           0 max           0 min
Histogram: 8 0 0 0 0 0 0 0 0 0

Total # of neighbors = 120960
Ave neighs/atom = 32
Neighbor list builds = 0
Dangerous builds = 0
undump 1

next            a
jump            in.SFE_Fe_BCC loop

reset_timestep  0

# Displace along x-direction ([111]), fault normal is z ([11-2])
variable        x_displace equal "-0.0005 * v_a * (v_latparam1)"
displace_atoms  top move ${x_displace} 0.0 0.0 units box
displace_atoms  top move -0.0143 0.0 0.0 units box
Displacing atoms ...

# Constrain motion along x and y to simulate shear
fix             1 all setforce 0.0 0.0 NULL

# Relax atomic positions (box is fixed)
min_style       cg
#minimize 1e-10 1e-10 1 1
minimize        1e-25 1e-25 10000 50000
Per MPI rank memory allocation (min/avg/max) = 5.375 | 5.389 | 5.402 Mbytes
   Step         PotEng        c_eatoms   
         0  -16312.573     -16312.573    
        10  -16312.578     -16312.578    
        20  -16312.578     -16312.578    
        30  -16312.578     -16312.578    
        39  -16312.578     -16312.578    
Loop time of 0.135696 on 8 procs for 39 steps with 3780 atoms

88.7% CPU use with 8 MPI tasks x no OpenMP threads

Minimization stats:
  Stopping criterion = energy tolerance
  Energy initial, next-to-last, final = 
     -16312.5729802826   -16312.577848669   -16312.577848669
  Force two-norm initial, final = 0.32240775 1.0564982e-10
  Force max component initial, final = 0.014547838 4.3661741e-12
  Final line search alpha, max atom move = 1 4.3661741e-12
  Iterations, force evaluations = 39 78

MPI task timing breakdown:
Section |  min time  |  avg time  |  max time  |%varavg| %total
---------------------------------------------------------------
Pair    | 0.059686   | 0.066088   | 0.089674   |   3.6 | 48.70
Neigh   | 0          | 0          | 0          |   0.0 |  0.00
Comm    | 0.027745   | 0.048115   | 0.056564   |   3.9 | 35.46
Output  | 0.0005112  | 0.000562   | 0.00089162 |   0.0 |  0.41
Modify  | 0.00019483 | 0.00020408 | 0.00021577 |   0.0 |  0.15
Other   |            | 0.02073    |            |       | 15.27

Nlocal:          472.5 ave         504 max         441 min
Histogram: 4 0 0 0 0 0 0 0 0 4
Nghost:         2023.5 ave        2055 max        1992 min
Histogram: 4 0 0 0 0 0 0 0 0 4
Neighs:          15120 ave       15884 max       14292 min
Histogram: 4 0 0 0 0 0 0 0 0 4
FullNghs:            0 ave           0 max           0 min
Histogram: 8 0 0 0 0 0 0 0 0 0

Total # of neighbors = 120960
Ave neighs/atom = 32
Neighbor list builds = 0
Dangerous builds = 0
run             0
WARNING: No fixes with time integration, atoms won't move (../verlet.cpp:60)
Per MPI rank memory allocation (min/avg/max) = 4.25 | 4.264 | 4.277 Mbytes
   Step         PotEng        c_eatoms   
        39  -16312.578     -16312.578    
Loop time of 3.83463e-06 on 8 procs for 0 steps with 3780 atoms

110.8% CPU use with 8 MPI tasks x no OpenMP threads

MPI task timing breakdown:
Section |  min time  |  avg time  |  max time  |%varavg| %total
---------------------------------------------------------------
Pair    | 0          | 0          | 0          |   0.0 |  0.00
Neigh   | 0          | 0          | 0          |   0.0 |  0.00
Comm    | 0          | 0          | 0          |   0.0 |  0.00
Output  | 0          | 0          | 0          |   0.0 |  0.00
Modify  | 0          | 0          | 0          |   0.0 |  0.00
Other   |            | 3.835e-06  |            |       |100.00

Nlocal:          472.5 ave         504 max         441 min
Histogram: 4 0 0 0 0 0 0 0 0 4
Nghost:         2023.5 ave        2055 max        1992 min
Histogram: 4 0 0 0 0 0 0 0 0 4
Neighs:          15120 ave       15884 max       14292 min
Histogram: 4 0 0 0 0 0 0 0 0 4
FullNghs:            0 ave           0 max           0 min
Histogram: 8 0 0 0 0 0 0 0 0 0

Total # of neighbors = 120960
Ave neighs/atom = 32
Neighbor list builds = 0
Dangerous builds = 0
#run             1

#unfix           1

# ===== SFE Calculation =====
variable        Ef equal c_eatoms
variable        Cf equal 1.60217657e-16    # eV to mJ
variable        A equal ${Area}*1e-20
variable        A equal 1268.00239775789*1e-20
variable        SFE equal (((${Ef}-${Eo})*${Cf})/${A})/2
variable        SFE equal (((-16312.5778486688-${Eo})*${Cf})/${A})/2
variable        SFE equal (((-16312.5778486688--16314.4804000186)*${Cf})/${A})/2
variable        SFE equal (((-16312.5778486688--16314.4804000186)*1.60217657e-16)/${A})/2
variable        SFE equal (((-16312.5778486688--16314.4804000186)*1.60217657e-16)/1.26800239775789e-17)/2

print "${x_displace}, ${SFE}" append Result.txt screen no


# ===== Output =====
dump            1 all custom 1 dump.${a} id type x y z
dump            1 all custom 1 dump.10 id type x y z
run             1
WARNING: No fixes with time integration, atoms won't move (../verlet.cpp:60)
Per MPI rank memory allocation (min/avg/max) = 4.25 | 4.264 | 4.277 Mbytes
   Step         PotEng        c_eatoms   
        39  -16312.578     -16312.578    
        40  -16312.578     -16312.578    
Loop time of 0.00399094 on 8 procs for 1 steps with 3780 atoms

Performance: 21.649 ns/day, 1.109 hours/ns, 250.568 timesteps/s, 947.146 katom-step/s
90.3% CPU use with 8 MPI tasks x no OpenMP threads

MPI task timing breakdown:
Section |  min time  |  avg time  |  max time  |%varavg| %total
---------------------------------------------------------------
Pair    | 0.00059542 | 0.00064061 | 0.00077358 |   0.0 | 16.05
Neigh   | 0          | 0          | 0          |   0.0 |  0.00
Comm    | 6.2307e-05 | 0.00019265 | 0.00023582 |   0.0 |  4.83
Output  | 0.0029571  | 0.0030447  | 0.0031335  |   0.1 | 76.29
Modify  | 2.703e-06  | 2.9263e-06 | 3.323e-06  |   0.0 |  0.07
Other   |            | 0.0001101  |            |       |  2.76

Nlocal:          472.5 ave         504 max         441 min
Histogram: 4 0 0 0 0 0 0 0 0 4
Nghost:         2023.5 ave        2055 max        1992 min
Histogram: 4 0 0 0 0 0 0 0 0 4
Neighs:          15120 ave       15884 max       14292 min
Histogram: 4 0 0 0 0 0 0 0 0 4
FullNghs:            0 ave           0 max           0 min
Histogram: 8 0 0 0 0 0 0 0 0 0

Total # of neighbors = 120960
Ave neighs/atom = 32
Neighbor list builds = 0
Dangerous builds = 0
undump 1

next            a
jump            in.SFE_Fe_BCC loop

reset_timestep  0

# Displace along x-direction ([111]), fault normal is z ([11-2])
variable        x_displace equal "-0.0005 * v_a * (v_latparam1)"
displace_atoms  top move ${x_displace} 0.0 0.0 units box
displace_atoms  top move -0.01573 0.0 0.0 units box
Displacing atoms ...

# Constrain motion along x and y to simulate shear
fix             1 all setforce 0.0 0.0 NULL

# Relax atomic positions (box is fixed)
min_style       cg
#minimize 1e-10 1e-10 1 1
minimize        1e-25 1e-25 10000 50000
Per MPI rank memory allocation (min/avg/max) = 5.375 | 5.389 | 5.402 Mbytes
   Step         PotEng        c_eatoms   
         0  -16311.74      -16311.74     
        10  -16311.746     -16311.746    
        20  -16311.746     -16311.746    
        30  -16311.746     -16311.746    
        40  -16311.746     -16311.746    
        49  -16311.746     -16311.746    
Loop time of 0.0907885 on 8 procs for 49 steps with 3780 atoms

96.0% CPU use with 8 MPI tasks x no OpenMP threads

Minimization stats:
  Stopping criterion = energy tolerance
  Energy initial, next-to-last, final = 
     -16311.7396444542  -16311.7462959134  -16311.7462959134
  Force two-norm initial, final = 0.37767964 1.3307761e-12
  Force max component initial, final = 0.017094513 6.938547e-14
  Final line search alpha, max atom move = 1 6.938547e-14
  Iterations, force evaluations = 49 98

MPI task timing breakdown:
Section |  min time  |  avg time  |  max time  |%varavg| %total
---------------------------------------------------------------
Pair    | 0.062065   | 0.065376   | 0.070876   |   1.0 | 72.01
Neigh   | 0          | 0          | 0          |   0.0 |  0.00
Comm    | 0.013363   | 0.019109   | 0.02253    |   1.9 | 21.05
Output  | 0.0002265  | 0.00027238 | 0.00057712 |   0.0 |  0.30
Modify  | 0.00021493 | 0.00031137 | 0.00086464 |   0.0 |  0.34
Other   |            | 0.00572    |            |       |  6.30

Nlocal:          472.5 ave         504 max         441 min
Histogram: 4 0 0 0 0 0 0 0 0 4
Nghost:         2023.5 ave        2055 max        1992 min
Histogram: 4 0 0 0 0 0 0 0 0 4
Neighs:          15120 ave       15884 max       14292 min
Histogram: 4 0 0 0 0 0 0 0 0 4
FullNghs:            0 ave           0 max           0 min
Histogram: 8 0 0 0 0 0 0 0 0 0

Total # of neighbors = 120960
Ave neighs/atom = 32
Neighbor list builds = 0
Dangerous builds = 0
run             0
WARNING: No fixes with time integration, atoms won't move (../verlet.cpp:60)
Per MPI rank memory allocation (min/avg/max) = 4.25 | 4.264 | 4.277 Mbytes
   Step         PotEng        c_eatoms   
        49  -16311.746     -16311.746    
Loop time of 2.2735e-06 on 8 procs for 0 steps with 3780 atoms

132.0% CPU use with 8 MPI tasks x no OpenMP threads

MPI task timing breakdown:
Section |  min time  |  avg time  |  max time  |%varavg| %total
---------------------------------------------------------------
Pair    | 0          | 0          | 0          |   0.0 |  0.00
Neigh   | 0          | 0          | 0          |   0.0 |  0.00
Comm    | 0          | 0          | 0          |   0.0 |  0.00
Output  | 0          | 0          | 0          |   0.0 |  0.00
Modify  | 0          | 0          | 0          |   0.0 |  0.00
Other   |            | 2.273e-06  |            |       |100.00

Nlocal:          472.5 ave         504 max         441 min
Histogram: 4 0 0 0 0 0 0 0 0 4
Nghost:         2023.5 ave        2055 max        1992 min
Histogram: 4 0 0 0 0 0 0 0 0 4
Neighs:          15120 ave       15884 max       14292 min
Histogram: 4 0 0 0 0 0 0 0 0 4
FullNghs:            0 ave           0 max           0 min
Histogram: 8 0 0 0 0 0 0 0 0 0

Total # of neighbors = 120960
Ave neighs/atom = 32
Neighbor list builds = 0
Dangerous builds = 0
#run             1

#unfix           1

# ===== SFE Calculation =====
variable        Ef equal c_eatoms
variable        Cf equal 1.60217657e-16    # eV to mJ
variable        A equal ${Area}*1e-20
variable        A equal 1268.00239775789*1e-20
variable        SFE equal (((${Ef}-${Eo})*${Cf})/${A})/2
variable        SFE equal (((-16311.746295913-${Eo})*${Cf})/${A})/2
variable        SFE equal (((-16311.746295913--16314.4804000186)*${Cf})/${A})/2
variable        SFE equal (((-16311.746295913--16314.4804000186)*1.60217657e-16)/${A})/2
variable        SFE equal (((-16311.746295913--16314.4804000186)*1.60217657e-16)/1.26800239775789e-17)/2

print "${x_displace}, ${SFE}" append Result.txt screen no


# ===== Output =====
dump            1 all custom 1 dump.${a} id type x y z
dump            1 all custom 1 dump.11 id type x y z
run             1
WARNING: No fixes with time integration, atoms won't move (../verlet.cpp:60)
Per MPI rank memory allocation (min/avg/max) = 4.25 | 4.264 | 4.277 Mbytes
   Step         PotEng        c_eatoms   
        49  -16311.746     -16311.746    
        50  -16311.746     -16311.746    
Loop time of 0.00253169 on 8 procs for 1 steps with 3780 atoms

Performance: 34.127 ns/day, 0.703 hours/ns, 394.992 timesteps/s, 1.493 Matom-step/s
96.1% CPU use with 8 MPI tasks x no OpenMP threads

MPI task timing breakdown:
Section |  min time  |  avg time  |  max time  |%varavg| %total
---------------------------------------------------------------
Pair    | 0.00060336 | 0.00062592 | 0.00064526 |   0.0 | 24.72
Neigh   | 0          | 0          | 0          |   0.0 |  0.00
Comm    | 8.1486e-05 | 0.00010005 | 0.00012119 |   0.0 |  3.95
Output  | 0.0016214  | 0.0017008  | 0.0017795  |   0.1 | 67.18
Modify  | 2.815e-06  | 3.089e-06  | 3.443e-06  |   0.0 |  0.12
Other   |            | 0.0001019  |            |       |  4.02

Nlocal:          472.5 ave         504 max         441 min
Histogram: 4 0 0 0 0 0 0 0 0 4
Nghost:         2023.5 ave        2055 max        1992 min
Histogram: 4 0 0 0 0 0 0 0 0 4
Neighs:          15120 ave       15884 max       14292 min
Histogram: 4 0 0 0 0 0 0 0 0 4
FullNghs:            0 ave           0 max           0 min
Histogram: 8 0 0 0 0 0 0 0 0 0

Total # of neighbors = 120960
Ave neighs/atom = 32
Neighbor list builds = 0
Dangerous builds = 0
undump 1

next            a
jump            in.SFE_Fe_BCC loop

reset_timestep  0

# Displace along x-direction ([111]), fault normal is z ([11-2])
variable        x_displace equal "-0.0005 * v_a * (v_latparam1)"
displace_atoms  top move ${x_displace} 0.0 0.0 units box
displace_atoms  top move -0.01716 0.0 0.0 units box
Displacing atoms ...

# Constrain motion along x and y to simulate shear
fix             1 all setforce 0.0 0.0 NULL

# Relax atomic positions (box is fixed)
min_style       cg
#minimize 1e-10 1e-10 1 1
minimize        1e-25 1e-25 10000 50000
Per MPI rank memory allocation (min/avg/max) = 5.375 | 5.389 | 5.402 Mbytes
   Step         PotEng        c_eatoms   
         0  -16310.659     -16310.659    
        10  -16310.668     -16310.668    
        20  -16310.668     -16310.668    
        30  -16310.668     -16310.668    
        40  -16310.668     -16310.668    
        49  -16310.668     -16310.668    
Loop time of 0.103215 on 8 procs for 49 steps with 3780 atoms

94.2% CPU use with 8 MPI tasks x no OpenMP threads

Minimization stats:
  Stopping criterion = energy tolerance
  Energy initial, next-to-last, final = 
      -16310.659353761  -16310.6682536361  -16310.6682536361
  Force two-norm initial, final = 0.43754543 1.7265227e-12
  Force max component initial, final = 0.019841578 1.0409902e-13
  Final line search alpha, max atom move = 1 1.0409902e-13
  Iterations, force evaluations = 49 98

MPI task timing breakdown:
Section |  min time  |  avg time  |  max time  |%varavg| %total
---------------------------------------------------------------
Pair    | 0.072713   | 0.07605    | 0.084302   |   1.3 | 73.68
Neigh   | 0          | 0          | 0          |   0.0 |  0.00
Comm    | 0.013761   | 0.021326   | 0.024481   |   2.2 | 20.66
Output  | 0.00014189 | 0.00018283 | 0.0004675  |   0.0 |  0.18
Modify  | 0.00021876 | 0.00023504 | 0.00025383 |   0.0 |  0.23
Other   |            | 0.005422   |            |       |  5.25

Nlocal:          472.5 ave         504 max         441 min
Histogram: 4 0 0 0 0 0 0 0 0 4
Nghost:         2023.5 ave        2055 max        1992 min
Histogram: 4 0 0 0 0 0 0 0 0 4
Neighs:          15183 ave       15947 max       14348 min
Histogram: 3 1 0 0 0 0 0 0 0 4
FullNghs:            0 ave           0 max           0 min
Histogram: 8 0 0 0 0 0 0 0 0 0

Total # of neighbors = 121464
Ave neighs/atom = 32.133333
Neighbor list builds = 0
Dangerous builds = 0
run             0
WARNING: No fixes with time integration, atoms won't move (../verlet.cpp:60)
Per MPI rank memory allocation (min/avg/max) = 4.25 | 4.264 | 4.277 Mbytes
   Step         PotEng        c_eatoms   
        49  -16310.668     -16310.668    
Loop time of 2.26788e-06 on 8 procs for 0 steps with 3780 atoms

132.3% CPU use with 8 MPI tasks x no OpenMP threads

MPI task timing breakdown:
Section |  min time  |  avg time  |  max time  |%varavg| %total
---------------------------------------------------------------
Pair    | 0          | 0          | 0          |   0.0 |  0.00
Neigh   | 0          | 0          | 0          |   0.0 |  0.00
Comm    | 0          | 0          | 0          |   0.0 |  0.00
Output  | 0          | 0          | 0          |   0.0 |  0.00
Modify  | 0          | 0          | 0          |   0.0 |  0.00
Other   |            | 2.268e-06  |            |       |100.00

Nlocal:          472.5 ave         504 max         441 min
Histogram: 4 0 0 0 0 0 0 0 0 4
Nghost:         2023.5 ave        2055 max        1992 min
Histogram: 4 0 0 0 0 0 0 0 0 4
Neighs:          15183 ave       15947 max       14350 min
Histogram: 3 1 0 0 0 0 0 0 0 4
FullNghs:            0 ave           0 max           0 min
Histogram: 8 0 0 0 0 0 0 0 0 0

Total # of neighbors = 121464
Ave neighs/atom = 32.133333
Neighbor list builds = 0
Dangerous builds = 0
#run             1

#unfix           1

# ===== SFE Calculation =====
variable        Ef equal c_eatoms
variable        Cf equal 1.60217657e-16    # eV to mJ
variable        A equal ${Area}*1e-20
variable        A equal 1268.00239775789*1e-20
variable        SFE equal (((${Ef}-${Eo})*${Cf})/${A})/2
variable        SFE equal (((-16310.6682536359-${Eo})*${Cf})/${A})/2
variable        SFE equal (((-16310.6682536359--16314.4804000186)*${Cf})/${A})/2
variable        SFE equal (((-16310.6682536359--16314.4804000186)*1.60217657e-16)/${A})/2
variable        SFE equal (((-16310.6682536359--16314.4804000186)*1.60217657e-16)/1.26800239775789e-17)/2

print "${x_displace}, ${SFE}" append Result.txt screen no


# ===== Output =====
dump            1 all custom 1 dump.${a} id type x y z
dump            1 all custom 1 dump.12 id type x y z
run             1
WARNING: No fixes with time integration, atoms won't move (../verlet.cpp:60)
Per MPI rank memory allocation (min/avg/max) = 4.25 | 4.264 | 4.277 Mbytes
   Step         PotEng        c_eatoms   
        49  -16310.668     -16310.668    
        50  -16310.668     -16310.668    
Loop time of 0.00224323 on 8 procs for 1 steps with 3780 atoms

Performance: 38.516 ns/day, 0.623 hours/ns, 445.785 timesteps/s, 1.685 Matom-step/s
92.8% CPU use with 8 MPI tasks x no OpenMP threads

MPI task timing breakdown:
Section |  min time  |  avg time  |  max time  |%varavg| %total
---------------------------------------------------------------
Pair    | 0.00060579 | 0.00063214 | 0.00065579 |   0.0 | 28.18
Neigh   | 0          | 0          | 0          |   0.0 |  0.00
Comm    | 7.2143e-05 | 9.3861e-05 | 0.0001194  |   0.0 |  4.18
Output  | 0.0013388  | 0.0014164  | 0.0014917  |   0.1 | 63.14
Modify  | 2.576e-06  | 3.0896e-06 | 3.4e-06    |   0.0 |  0.14
Other   |            | 9.772e-05  |            |       |  4.36

Nlocal:          472.5 ave         504 max         441 min
Histogram: 4 0 0 0 0 0 0 0 0 4
Nghost:         2023.5 ave        2055 max        1992 min
Histogram: 4 0 0 0 0 0 0 0 0 4
Neighs:          15183 ave       15947 max       14350 min
Histogram: 3 1 0 0 0 0 0 0 0 4
FullNghs:            0 ave           0 max           0 min
Histogram: 8 0 0 0 0 0 0 0 0 0

Total # of neighbors = 121464
Ave neighs/atom = 32.133333
Neighbor list builds = 0
Dangerous builds = 0
undump 1

next            a
jump            in.SFE_Fe_BCC loop

reset_timestep  0

# Displace along x-direction ([111]), fault normal is z ([11-2])
variable        x_displace equal "-0.0005 * v_a * (v_latparam1)"
displace_atoms  top move ${x_displace} 0.0 0.0 units box
displace_atoms  top move -0.01859 0.0 0.0 units box
Displacing atoms ...

# Constrain motion along x and y to simulate shear
fix             1 all setforce 0.0 0.0 NULL

[...]
variable        SFE equal (((-16292.1986106299--16314.4804000186)*1.60217657e-16)/${A})/2
variable        SFE equal (((-16292.1986106299--16314.4804000186)*1.60217657e-16)/1.26800239775789e-17)/2

print "${x_displace}, ${SFE}" append Result.txt screen no


# ===== Output =====
dump            1 all custom 1 dump.${a} id type x y z
dump            1 all custom 1 dump.55 id type x y z
run             1
Per MPI rank memory allocation (min/avg/max) = 4.25 | 4.264 | 4.277 Mbytes
   Step         PotEng        c_eatoms   
        69  -16292.199     -16292.199    
        70  -16292.199     -16292.199    
Loop time of 0.0026883 on 8 procs for 1 steps with 3780 atoms

Performance: 32.139 ns/day, 0.747 hours/ns, 371.982 timesteps/s, 1.406 Matom-step/s
96.4% CPU use with 8 MPI tasks x no OpenMP threads

MPI task timing breakdown:
Section |  min time  |  avg time  |  max time  |%varavg| %total
---------------------------------------------------------------
Pair    | 0.00060566 | 0.00066319 | 0.00070283 |   0.0 | 24.67
Neigh   | 0          | 0          | 0          |   0.0 |  0.00
Comm    | 7.4645e-05 | 0.0001142  | 0.00017407 |   0.0 |  4.25
Output  | 0.0017335  | 0.0018104  | 0.0018867  |   0.1 | 67.34
Modify  | 2.681e-06  | 3.0481e-06 | 3.479e-06  |   0.0 |  0.11
Other   |            | 9.751e-05  |            |       |  3.63

Nlocal:          472.5 ave         504 max         441 min
Histogram: 4 0 0 0 0 0 0 0 0 4
Nghost:         2023.5 ave        2055 max        1992 min
Histogram: 4 0 0 0 0 0 0 0 0 4
Neighs:          15309 ave       16011 max       14585 min
Histogram: 4 0 0 0 0 0 0 0 0 4
FullNghs:            0 ave           0 max           0 min
Histogram: 8 0 0 0 0 0 0 0 0 0

Total # of neighbors = 122472
Ave neighs/atom = 32.4
Neighbor list builds = 0
Dangerous builds = 0
undump 1

next            a
jump            in.SFE_Fe_BCC loop

reset_timestep  0

# Displace along x-direction ([111]), fault normal is z ([11-2])
variable        x_displace equal "-0.0005 * v_a * (v_latparam1)"
displace_atoms  top move ${x_displace} 0.0 0.0 units box
displace_atoms  top move -0.08008 0.0 0.0 units box
Displacing atoms ...

# Constrain motion along x and y to simulate shear
fix             1 all setforce 0.0 0.0 NULL

# Relax atomic positions (box is fixed)
min_style       cg
#minimize 1e-10 1e-10 1 1
minimize        1e-25 1e-25 10000 50000
Per MPI rank memory allocation (min/avg/max) = 5.375 | 5.389 | 5.402 Mbytes
   Step         PotEng        c_eatoms   
         0  -16302.137     -16302.137    
        10  -16302.439     -16302.439    
        20  -16302.439     -16302.439    
        30  -16302.439     -16302.439    
        40  -16302.439     -16302.439    
        50  -16302.439     -16302.439    
        58  -16302.439     -16302.439    
Loop time of 0.102473 on 8 procs for 58 steps with 3780 atoms

96.4% CPU use with 8 MPI tasks x no OpenMP threads

Minimization stats:
  Stopping criterion = energy tolerance
  Energy initial, next-to-last, final = 
     -16302.1366911281  -16302.4394985897  -16302.4394985897
  Force two-norm initial, final = 2.618403 9.2333331e-13
  Force max component initial, final = 0.10512341 1.085642e-13
  Final line search alpha, max atom move = 1 1.085642e-13
  Iterations, force evaluations = 58 116

MPI task timing breakdown:
Section |  min time  |  avg time  |  max time  |%varavg| %total
---------------------------------------------------------------
Pair    | 0.070862   | 0.075099   | 0.085518   |   1.6 | 73.29
Neigh   | 0          | 0          | 0          |   0.0 |  0.00
Comm    | 0.01042    | 0.021244   | 0.025927   |   3.2 | 20.73
Output  | 0.00018071 | 0.0002128  | 0.00043441 |   0.0 |  0.21
Modify  | 0.00025956 | 0.00028179 | 0.0003053  |   0.0 |  0.27
Other   |            | 0.005635   |            |       |  5.50

Nlocal:          472.5 ave         504 max         441 min
Histogram: 4 0 0 0 0 0 0 0 0 4
Nghost:         2023.5 ave        2055 max        1992 min
Histogram: 4 0 0 0 0 0 0 0 0 4
Neighs:        15277.5 ave       16011 max       14522 min
Histogram: 4 0 0 0 0 0 0 0 0 4
FullNghs:            0 ave           0 max           0 min
Histogram: 8 0 0 0 0 0 0 0 0 0

Total # of neighbors = 122220
Ave neighs/atom = 32.333333
Neighbor list builds = 0
Dangerous builds = 0
run             0
Per MPI rank memory allocation (min/avg/max) = 4.25 | 4.264 | 4.277 Mbytes
   Step         PotEng        c_eatoms   
        58  -16302.439     -16302.439    
Loop time of 2.09075e-06 on 8 procs for 0 steps with 3780 atoms

125.6% CPU use with 8 MPI tasks x no OpenMP threads

MPI task timing breakdown:
Section |  min time  |  avg time  |  max time  |%varavg| %total
---------------------------------------------------------------
Pair    | 0          | 0          | 0          |   0.0 |  0.00
Neigh   | 0          | 0          | 0          |   0.0 |  0.00
Comm    | 0          | 0          | 0          |   0.0 |  0.00
Output  | 0          | 0          | 0          |   0.0 |  0.00
Modify  | 0          | 0          | 0          |   0.0 |  0.00
Other   |            | 2.091e-06  |            |       |100.00

Nlocal:          472.5 ave         504 max         441 min
Histogram: 4 0 0 0 0 0 0 0 0 4
Nghost:         2023.5 ave        2055 max        1992 min
Histogram: 4 0 0 0 0 0 0 0 0 4
Neighs:          15309 ave       16011 max       14583 min
Histogram: 4 0 0 0 0 0 0 0 0 4
FullNghs:            0 ave           0 max           0 min
Histogram: 8 0 0 0 0 0 0 0 0 0

Total # of neighbors = 122472
Ave neighs/atom = 32.4
Neighbor list builds = 0
Dangerous builds = 0
#run             1

#unfix           1

# ===== SFE Calculation =====
variable        Ef equal c_eatoms
variable        Cf equal 1.60217657e-16    # eV to mJ
variable        A equal ${Area}*1e-20
variable        A equal 1268.00239775789*1e-20
variable        SFE equal (((${Ef}-${Eo})*${Cf})/${A})/2
variable        SFE equal (((-16302.4394985891-${Eo})*${Cf})/${A})/2
variable        SFE equal (((-16302.4394985891--16314.4804000186)*${Cf})/${A})/2
variable        SFE equal (((-16302.4394985891--16314.4804000186)*1.60217657e-16)/${A})/2
variable        SFE equal (((-16302.4394985891--16314.4804000186)*1.60217657e-16)/1.26800239775789e-17)/2

print "${x_displace}, ${SFE}" append Result.txt screen no


# ===== Output =====
dump            1 all custom 1 dump.${a} id type x y z
dump            1 all custom 1 dump.56 id type x y z
run             1
Per MPI rank memory allocation (min/avg/max) = 4.25 | 4.264 | 4.277 Mbytes
   Step         PotEng        c_eatoms   
        58  -16302.439     -16302.439    
        59  -16302.439     -16302.439    
Loop time of 0.00462914 on 8 procs for 1 steps with 3780 atoms

Performance: 18.664 ns/day, 1.286 hours/ns, 216.023 timesteps/s, 816.567 katom-step/s
92.3% CPU use with 8 MPI tasks x no OpenMP threads

MPI task timing breakdown:
Section |  min time  |  avg time  |  max time  |%varavg| %total
---------------------------------------------------------------
Pair    | 0.001093   | 0.0011265  | 0.0011497  |   0.1 | 24.33
Neigh   | 0          | 0          | 0          |   0.0 |  0.00
Comm    | 8.0154e-05 | 0.000105   | 0.00014249 |   0.0 |  2.27
Output  | 0.0032004  | 0.0032794  | 0.0033607  |   0.1 | 70.84
Modify  | 2.959e-06  | 3.4435e-06 | 3.913e-06  |   0.0 |  0.07
Other   |            | 0.0001148  |            |       |  2.48

Nlocal:          472.5 ave         504 max         441 min
Histogram: 4 0 0 0 0 0 0 0 0 4
Nghost:         2023.5 ave        2055 max        1992 min
Histogram: 4 0 0 0 0 0 0 0 0 4
Neighs:          15309 ave       16011 max       14583 min
Histogram: 4 0 0 0 0 0 0 0 0 4
FullNghs:            0 ave           0 max           0 min
Histogram: 8 0 0 0 0 0 0 0 0 0

Total # of neighbors = 122472
Ave neighs/atom = 32.4
Neighbor list builds = 0
Dangerous builds = 0
undump 1

next            a
jump            in.SFE_Fe_BCC loop

reset_timestep  0

# Displace along x-direction ([111]), fault normal is z ([11-2])
variable        x_displace equal "-0.0005 * v_a * (v_latparam1)"
displace_atoms  top move ${x_displace} 0.0 0.0 units box
displace_atoms  top move -0.08151 0.0 0.0 units box
Displacing atoms ...

# Constrain motion along x and y to simulate shear
fix             1 all setforce 0.0 0.0 NULL

# Relax atomic positions (box is fixed)
min_style       cg
#minimize 1e-10 1e-10 1 1
minimize        1e-25 1e-25 10000 50000
Per MPI rank memory allocation (min/avg/max) = 5.375 | 5.389 | 5.402 Mbytes
   Step         PotEng        c_eatoms   
         0  -16309.917     -16309.917    
        10  -16310.168     -16310.168    
        20  -16310.168     -16310.168    
        30  -16310.168     -16310.168    
        40  -16310.168     -16310.168    
        50  -16310.168     -16310.168    
        57  -16310.168     -16310.168    
Loop time of 0.182506 on 8 procs for 57 steps with 3780 atoms

90.7% CPU use with 8 MPI tasks x no OpenMP threads

Minimization stats:
  Stopping criterion = energy tolerance
  Energy initial, next-to-last, final = 
     -16309.9169374758  -16310.1677367969  -16310.1677367969
  Force two-norm initial, final = 2.2304395 1.0197098e-12
  Force max component initial, final = 0.095927555 1.0173112e-13
  Final line search alpha, max atom move = 1 1.0173112e-13
  Iterations, force evaluations = 57 114

MPI task timing breakdown:
Section |  min time  |  avg time  |  max time  |%varavg| %total
---------------------------------------------------------------
Pair    | 0.097229   | 0.10694    | 0.14753    |   4.8 | 58.60
Neigh   | 0          | 0          | 0          |   0.0 |  0.00
Comm    | 0.021749   | 0.061528   | 0.070717   |   6.1 | 33.71
Output  | 0.00021192 | 0.00034281 | 0.0012549  |   0.0 |  0.19
Modify  | 0.00026486 | 0.0003084  | 0.00046053 |   0.0 |  0.17
Other   |            | 0.01339    |            |       |  7.34

Nlocal:          472.5 ave         504 max         441 min
Histogram: 4 0 0 0 0 0 0 0 0 4
Nghost:         2023.5 ave        2055 max        1992 min
Histogram: 4 0 0 0 0 0 0 0 0 4
Neighs:          15183 ave       15907 max       14422 min
Histogram: 4 0 0 0 0 0 0 0 0 4
FullNghs:            0 ave           0 max           0 min
Histogram: 8 0 0 0 0 0 0 0 0 0

Total # of neighbors = 121464
Ave neighs/atom = 32.133333
Neighbor list builds = 0
Dangerous builds = 0
run             0
Per MPI rank memory allocation (min/avg/max) = 4.25 | 4.264 | 4.277 Mbytes
   Step         PotEng        c_eatoms   
        57  -16310.168     -16310.168    
Loop time of 2.73375e-06 on 8 procs for 0 steps with 3780 atoms

114.3% CPU use with 8 MPI tasks x no OpenMP threads

MPI task timing breakdown:
Section |  min time  |  avg time  |  max time  |%varavg| %total
---------------------------------------------------------------
Pair    | 0          | 0          | 0          |   0.0 |  0.00
Neigh   | 0          | 0          | 0          |   0.0 |  0.00
Comm    | 0          | 0          | 0          |   0.0 |  0.00
Output  | 0          | 0          | 0          |   0.0 |  0.00
Modify  | 0          | 0          | 0          |   0.0 |  0.00
Other   |            | 2.734e-06  |            |       |100.00

Nlocal:          472.5 ave         504 max         441 min
Histogram: 4 0 0 0 0 0 0 0 0 4
Nghost:         2023.5 ave        2055 max        1992 min
Histogram: 4 0 0 0 0 0 0 0 0 4
Neighs:          15183 ave       15907 max       14423 min
Histogram: 4 0 0 0 0 0 0 0 0 4
FullNghs:            0 ave           0 max           0 min
Histogram: 8 0 0 0 0 0 0 0 0 0

Total # of neighbors = 121464
Ave neighs/atom = 32.133333
Neighbor list builds = 0
Dangerous builds = 0
#run             1

#unfix           1

# ===== SFE Calculation =====
variable        Ef equal c_eatoms
variable        Cf equal 1.60217657e-16    # eV to mJ
variable        A equal ${Area}*1e-20
variable        A equal 1268.00239775789*1e-20
variable        SFE equal (((${Ef}-${Eo})*${Cf})/${A})/2
variable        SFE equal (((-16310.1677367966-${Eo})*${Cf})/${A})/2
variable        SFE equal (((-16310.1677367966--16314.4804000186)*${Cf})/${A})/2
variable        SFE equal (((-16310.1677367966--16314.4804000186)*1.60217657e-16)/${A})/2
variable        SFE equal (((-16310.1677367966--16314.4804000186)*1.60217657e-16)/1.26800239775789e-17)/2

print "${x_displace}, ${SFE}" append Result.txt screen no


# ===== Output =====
dump            1 all custom 1 dump.${a} id type x y z
dump            1 all custom 1 dump.57 id type x y z
run             1
Per MPI rank memory allocation (min/avg/max) = 4.25 | 4.264 | 4.277 Mbytes
   Step         PotEng        c_eatoms   
        57  -16310.168     -16310.168    
        58  -16310.168     -16310.168    
Loop time of 0.00417453 on 8 procs for 1 steps with 3780 atoms

Performance: 20.697 ns/day, 1.160 hours/ns, 239.548 timesteps/s, 905.491 katom-step/s
90.2% CPU use with 8 MPI tasks x no OpenMP threads

MPI task timing breakdown:
Section |  min time  |  avg time  |  max time  |%varavg| %total
---------------------------------------------------------------
Pair    | 0.00058533 | 0.00062826 | 0.0006979  |   0.0 | 15.05
Neigh   | 0          | 0          | 0          |   0.0 |  0.00
Comm    | 5.9162e-05 | 0.0001272  | 0.00016885 |   0.0 |  3.05
Output  | 0.0032433  | 0.0033208  | 0.0033978  |   0.1 | 79.55
Modify  | 2.604e-06  | 2.7914e-06 | 2.939e-06  |   0.0 |  0.07
Other   |            | 9.548e-05  |            |       |  2.29

Nlocal:          472.5 ave         504 max         441 min
Histogram: 4 0 0 0 0 0 0 0 0 4
Nghost:         2023.5 ave        2055 max        1992 min
Histogram: 4 0 0 0 0 0 0 0 0 4
Neighs:          15183 ave       15907 max       14423 min
Histogram: 4 0 0 0 0 0 0 0 0 4
FullNghs:            0 ave           0 max           0 min
Histogram: 8 0 0 0 0 0 0 0 0 0

Total # of neighbors = 121464
Ave neighs/atom = 32.133333
Neighbor list builds = 0
Dangerous builds = 0
undump 1

next            a
jump            in.SFE_Fe_BCC loop

reset_timestep  0

# Displace along x-direction ([111]), fault normal is z ([11-2])
variable        x_displace equal "-0.0005 * v_a * (v_latparam1)"
displace_atoms  top move ${x_displace} 0.0 0.0 units box
displace_atoms  top move -0.08294 0.0 0.0 units box
Displacing atoms ...

# Constrain motion along x and y to simulate shear
fix             1 all setforce 0.0 0.0 NULL

# Relax atomic positions (box is fixed)
min_style       cg
#minimize 1e-10 1e-10 1 1
minimize        1e-25 1e-25 10000 50000
Per MPI rank memory allocation (min/avg/max) = 5.375 | 5.389 | 5.402 Mbytes
   Step         PotEng        c_eatoms   
         0  -16313.933     -16313.933    
        10  -16314.087     -16314.087    
        20  -16314.087     -16314.087    
        30  -16314.087     -16314.087    
        40  -16314.087     -16314.087    
        50  -16314.087     -16314.087    
        56  -16314.087     -16314.087    
Loop time of 0.178239 on 8 procs for 56 steps with 3780 atoms

90.5% CPU use with 8 MPI tasks x no OpenMP threads

Minimization stats:
  Stopping criterion = energy tolerance
  Energy initial, next-to-last, final = 
     -16313.9334676258  -16314.0868079455  -16314.0868079455
  Force two-norm initial, final = 1.6690738 8.7469672e-13
  Force max component initial, final = 0.074087895 7.7778062e-14
  Final line search alpha, max atom move = 1 7.7778062e-14
  Iterations, force evaluations = 56 112

MPI task timing breakdown:
Section |  min time  |  avg time  |  max time  |%varavg| %total
---------------------------------------------------------------
Pair    | 0.10263    | 0.10902    | 0.13348    |   2.9 | 61.17
Neigh   | 0          | 0          | 0          |   0.0 |  0.00
Comm    | 0.030835   | 0.051217   | 0.05733    |   3.6 | 28.73
Output  | 0.00018466 | 0.00023195 | 0.00055894 |   0.0 |  0.13
Modify  | 0.00026149 | 0.00028866 | 0.00031157 |   0.0 |  0.16
Other   |            | 0.01748    |            |       |  9.81

Nlocal:          472.5 ave         504 max         441 min
Histogram: 4 0 0 0 0 0 0 0 0 4
Nghost:         2023.5 ave        2055 max        1992 min
Histogram: 4 0 0 0 0 0 0 0 0 4
Neighs:          15120 ave       15893 max       14319 min
Histogram: 4 0 0 0 0 0 0 0 0 4
FullNghs:            0 ave           0 max           0 min
Histogram: 8 0 0 0 0 0 0 0 0 0

Total # of neighbors = 120960
Ave neighs/atom = 32
Neighbor list builds = 0
Dangerous builds = 0
run             0
Per MPI rank memory allocation (min/avg/max) = 4.25 | 4.264 | 4.277 Mbytes
   Step         PotEng        c_eatoms   
        56  -16314.087     -16314.087    
Loop time of 2.42925e-06 on 8 procs for 0 steps with 3780 atoms

133.8% CPU use with 8 MPI tasks x no OpenMP threads

MPI task timing breakdown:
Section |  min time  |  avg time  |  max time  |%varavg| %total
---------------------------------------------------------------
Pair    | 0          | 0          | 0          |   0.0 |  0.00
Neigh   | 0          | 0          | 0          |   0.0 |  0.00
Comm    | 0          | 0          | 0          |   0.0 |  0.00
Output  | 0          | 0          | 0          |   0.0 |  0.00
Modify  | 0          | 0          | 0          |   0.0 |  0.00
Other   |            | 2.429e-06  |            |       |100.00

Nlocal:          472.5 ave         504 max         441 min
Histogram: 4 0 0 0 0 0 0 0 0 4
Nghost:         2023.5 ave        2055 max        1992 min
Histogram: 4 0 0 0 0 0 0 0 0 4
Neighs:          15120 ave       15893 max       14319 min
Histogram: 4 0 0 0 0 0 0 0 0 4
FullNghs:            0 ave           0 max           0 min
Histogram: 8 0 0 0 0 0 0 0 0 0

Total # of neighbors = 120960
Ave neighs/atom = 32
Neighbor list builds = 0
Dangerous builds = 0
#run             1

#unfix           1

# ===== SFE Calculation =====
variable        Ef equal c_eatoms
variable        Cf equal 1.60217657e-16    # eV to mJ
variable        A equal ${Area}*1e-20
variable        A equal 1268.00239775789*1e-20
variable        SFE equal (((${Ef}-${Eo})*${Cf})/${A})/2
variable        SFE equal (((-16314.086807945-${Eo})*${Cf})/${A})/2
variable        SFE equal (((-16314.086807945--16314.4804000186)*${Cf})/${A})/2
variable        SFE equal (((-16314.086807945--16314.4804000186)*1.60217657e-16)/${A})/2
variable        SFE equal (((-16314.086807945--16314.4804000186)*1.60217657e-16)/1.26800239775789e-17)/2

print "${x_displace}, ${SFE}" append Result.txt screen no


# ===== Output =====
dump            1 all custom 1 dump.${a} id type x y z
dump            1 all custom 1 dump.58 id type x y z
run             1
Per MPI rank memory allocation (min/avg/max) = 4.25 | 4.264 | 4.277 Mbytes
   Step         PotEng        c_eatoms   
        56  -16314.087     -16314.087    
        57  -16314.087     -16314.087    
Loop time of 0.00726204 on 8 procs for 1 steps with 3780 atoms

Performance: 11.897 ns/day, 2.017 hours/ns, 137.702 timesteps/s, 520.515 katom-step/s
81.0% CPU use with 8 MPI tasks x no OpenMP threads

MPI task timing breakdown:
Section |  min time  |  avg time  |  max time  |%varavg| %total
---------------------------------------------------------------
Pair    | 0.00058245 | 0.0006071  | 0.00063153 |   0.0 |  8.36
Neigh   | 0          | 0          | 0          |   0.0 |  0.00
Comm    | 6.5724e-05 | 9.0581e-05 | 0.00011593 |   0.0 |  1.25
Output  | 0.0063834  | 0.0064655  | 0.0065445  |   0.1 | 89.03
Modify  | 2.412e-06  | 2.9749e-06 | 3.603e-06  |   0.0 |  0.04
Other   |            | 9.584e-05  |            |       |  1.32

Nlocal:          472.5 ave         504 max         441 min
Histogram: 4 0 0 0 0 0 0 0 0 4
Nghost:         2023.5 ave        2055 max        1992 min
Histogram: 4 0 0 0 0 0 0 0 0 4
Neighs:          15120 ave       15893 max       14319 min
Histogram: 4 0 0 0 0 0 0 0 0 4
FullNghs:            0 ave           0 max           0 min
Histogram: 8 0 0 0 0 0 0 0 0 0

Total # of neighbors = 120960
Ave neighs/atom = 32
Neighbor list builds = 0
Dangerous builds = 0
undump 1

next            a
jump            in.SFE_Fe_BCC loop

# ===== Simulation Complete =====
print           "All done"
All done
Total wall time: 0:00:10
